6
Frame 14: Geometry 72, Energy: -1.01226 Ha
C 0.0367035267133925 -0.07426165924514543 0.02481188534720495
H -0.01455671818486865 0.03035554295837771 1.101799847108693
H 1.014102844003332 0.03008000699304221 -0.4307056000535202
H -0.6424668447578444 -0.7840629253484902 -0.4317050437699336
H -0.640119680020687 1.301733387255528 -0.430122484122855
H -0.9793768532194098 1.9892808709728 -0.6585560407257081
