

 Parallel Execution: Process Information
 ==============================================================================
 Rank   Node Name                              NodeID   MyNodeRank  NodeMaster
    0   macbookproeric2018.home                   0          0          0
    1   macbookproeric2018.home                   0          1         -1
    2   macbookproeric2018.home                   0          2         -1
    3   macbookproeric2018.home                   0          3         -1
    4   macbookproeric2018.home                   0          4         -1
    5   macbookproeric2018.home                   0          5         -1
    6   macbookproeric2018.home                   0          6         -1
    7   macbookproeric2018.home                   0          7         -1
    8   macbookproeric2018.home                   0          8         -1
    9   macbookproeric2018.home                   0          9         -1
 ==============================================================================


May use up to 17578MB of RAM as shared memory on node 0

 *******************************************************************************
 *                                                                             *
 *  --------------------------------                                           *
 *   Amsterdam Modeling Suite (AMS)              2024.102                      *
 *  --------------------------------                                           *
 *                                               r122055 2024-06-07            *
 *                                                                             *
 *                                                                             *
 *                              =================                              *
 *                              |               |                              *
 *                              |     A M S     |                              *
 *                              |               |                              *
 *                              =================                              *
 *                                                                             *
 *                                                                             *
 *   Online information and documentation:  https://www.scm.com/support/       *
 *   E-mail:  support@scm.com   info@scm.com                                   *
 *                                                                             *
 *   Scientific publications using AMS results must be properly referenced     *
 *   See the User Manuals (or the web site) for recommended citations          *
 *   The terms and conditions of the End User License Agreement apply to       *
 *   the use of AMS, https://www.scm.com/license-terms/                        *
 *                                                                             *
 **********************  x86_64_darwin_intel / openmpi  ************************
 
 Licensed to: Prof. Eric HENON / Institut de Chimie Moléculaire de Reims / Reims / FRANCE 2024-07-19 18:58:06
 SCM User ID: u27163
  
 AMS 2024.102  RunTime: Aug16-2024 15:27:27  ShM Nodes: 1  Procs: 10

 AMS jobname: ams
 AMS jobid  : 1683194044

 Start   directory: /Users/henon1/0testJobs/2_ChemistrySofts/4_ADF/5_BimolReaction/2ex_vtst/3_IRC/2_forward/1FOR/tmp.henon1.9070.0.noindex/
 Results directory: /Users/henon1/0testJobs/2_ChemistrySofts/4_ADF/5_BimolReaction/2ex_vtst/3_IRC/2_forward/1FOR/for1.results/
 Scratch directory: /tmp/amstmp_ams_kid0.1683194044/


 Communication costs MPI_COMM_WORLD:      0.895 usec per message,   0.0110 usec per 8-byte item
 Communication costs for intra-node:      0.831 usec per message,   0.0121 usec per 8-byte item

 RNG seed: -130403188 -532390108 -913170025 -711294355 803550544 783230386 1312358255 -1921838391



                     *************************************************************************
                     *  ADF 2024.102  RunTime: Aug16-2024 15:27:29  ShM Nodes: 1  Procs: 10  *
                     *************************************************************************
  

       ****************************
       * SINGLE POINT CALCULATION *
       ****************************
 
--------
Geometry
--------
Formula: CH5
Atoms
  Index Symbol   x (angstrom)   y (angstrom)   z (angstrom)
      1      C     0.02410913    -0.04864793     0.01631643
      2      H     0.00403299    -0.00766177     1.10217452
      3      H     1.02148602    -0.00840829    -0.41333792
      4      H    -0.61662866    -0.81363718    -0.41397708
      5      H    -0.52774972     1.07364869    -0.35467034
      6      H    -0.94759842     1.92493778    -0.63734163
 
Total System Charge             0.00000
Bonding info available!
 
 
----------------
ADF Engine Input
----------------
 
 Basis
 Core None
 End
 SpinPolarization 1
 XC
 Hybrid B3LYP
 End
 Relativity
 Level None
 End
 Unrestricted Yes
 

 Title: *** (NO TITLE) ***

 *** adf ***



 ===========================
 A T T A C H E D   F I L E S
 ===========================
  



 ===============================
 M O D E L   P A R A M E T E R S
 ===============================
  
 DENSITY FUNCTIONAL POTENTIAL (scf)
    Hybrid:                            B3LYP                                   == Not Default ==

 SPIN  (restricted / unrestr.)
    Molecule:                          UNrestricted                            == Not Default ==
    Fragments:                         Restricted                               

 OTHER ASPECTS
    Relativistic Corrections:          ---                                     == Not Default ==

    Nuclear Charge Density Model:      Point Charge Nuclei                      
    Core Treatment:                    Frozen Orbital(s)                        

    Hyperfine or Zeeman Interaction:   ---                                      


 Fragment File(s)
 ----------------
 C:
         file : /Users/henon1/0testJobs/2_ChemistrySofts/4_ADF/5_BimolReaction/2ex_vtst/3_IRC/2_forward/1FOR/for1.results/t21.14F2B692.C
         jobid: 0
         title: Carbon (DZ)
 H:
         file : /Users/henon1/0testJobs/2_ChemistrySofts/4_ADF/5_BimolReaction/2ex_vtst/3_IRC/2_forward/1FOR/for1.results/t21.3F46D696.H
         jobid: 0
         title: Hydrogen (DZ)



 ===============
 G E O M E T R Y  ***  3D  Molecule  ***
 ===============
  

 ATOMS
 =====                            X Y Z                    CHARGE
                                (Angstrom)             Nucl     +Core       At.Mass
                       --------------------------    ----------------       -------
    1  C               0.0241   -0.0486    0.0163      6.00      6.00       12.0000
    2  H               0.0040   -0.0077    1.1022      1.00      1.00        1.0078
    3  H               1.0215   -0.0084   -0.4133      1.00      1.00        1.0078
    4  H              -0.6166   -0.8136   -0.4140      1.00      1.00        1.0078
    5  H              -0.5277    1.0736   -0.3547      1.00      1.00        1.0078
    6  H              -0.9476    1.9249   -0.6373      1.00      1.00        1.0078


 FRAGMENTS
 =========                                     Atoms in this Fragment     Cart. coord.s (Angstrom)
                                               -------------------------------------------------------
    1  C                                                 1  C            0.0241   -0.0486    0.0163
    2  H                                                 2  H            0.0040   -0.0077    1.1022
    3  H                                                 3  H            1.0215   -0.0084   -0.4133
    4  H                                                 4  H           -0.6166   -0.8136   -0.4140
    5  H                                                 5  H           -0.5277    1.0736   -0.3547
    6  H                                                 6  H           -0.9476    1.9249   -0.6373


 Interatomic Distance Matrix (Angstrom)
 --------------------------------------

   1)     0.000
   2)     1.087   0.000
   3)     1.087   1.825   0.000
   4)     1.087   1.826   1.825   0.000
   5)     1.305   1.891   1.891   1.890   0.000
   6)     2.295   2.769   2.769   2.768   0.990   0.000

 Min. Distance =    0.9904
 Max. Distance =    2.7688



 =====================================
 S Y M M E T R Y ,   E L E C T R O N S
 =====================================
  
 Symmetry: NOSYM

 Irreducible Representations, including subspecies
 -------------------------------------------------
 A

 Symmetry is NOT used when fitting density


 Configuration of Valence Electrons
 ==================================
 ( determined in the SCF procedure )

 Total:   6 (Spin-A)  + 5 (Spin-B)

 Net Charge: 0 (Nuclei minus Electrons)
 Spin polar: 1 (Spin_A minus Spin_B electrons)

 Aufbau principle for MO occupations will be applied through SCF cycle no.     150
 Thereafter, the program will assign electrons to MOs that are spatially
 similar to the occupied MOs in a "reference" cycle ("KeepOrbitals").
 The reference cycle is always the PREVIOUS cycle: it will evolve with
 the SCF procedure.
1
 ***************************************************************************************************



                                      ****************************************
                                      *  B U I L D : (Fragments, Functions)  *
                                      ****************************************
  



 =======
 S F O s  ***  (Symmetrized Fragment Orbitals)  ***
 =======
  
 SFOs are linear combinations of (valence) Fragment Orbitals (FOs), such that the SFOs transform as the
 irreducible representations of the (molecular) symmetry group. Each SFO is therefore characterized by
 an irrep of the molecule and by a few (or only one) generating FOs.
 The SFOs constitute a symmetry-adapted basis for the Fock matrix. The MO eigenvector coefficients in
 this basis provide a direct interpretation of the MOs in terms of Frontier Orbital Theory.

 The SFOs are combined with auxiliary Core Functions (CFs) to ensure orthogonalization on the (frozen)
 Core Orbitals (COs). The Core-orthogonalized SFOs (CSFOs) constitute the true Fock basis.

 The FOs, and hence also the (C)SFOs are combinations of the elementary basis functions (BAS). The basis
 functions that participate in the description of the SFOs depend on the irrep. The indices of the
 involved functions are printed below for each irrep.
 (The complete list of primitive basis functions is printed in another section)

 Total nr. of (C)SFOs (summation over all irreps) :    20

 NOTE: a (C)SFO that is defined as a combination of more than one FO is usually NOT normalized.



                                       === A ===
 Nr. of SFOs :   20
 Cartesian basis functions that participate in this irrep (total number =    20) :
      1     2     3     4     5     8     6     9     7    10
     11    12    13    14    15    16    17    18    19    20

    SFO  (index         Fragment          Generating    Expansion in Fragment Orbitals
  indx  incl.CFs)   Occup   Orb.Energy   FragmentType  Coeff.   Orbital     on Fragment
 --------------------------------------------------------------------------------------
     1       1      2.000     -10.354 au  C             1.00      1 S               1
                        (    -281.747 eV)
     2       2      2.000      -0.566 au  C             1.00      2 S               1
                        (     -15.403 eV)
     3       3       --         0.439 au  C             1.00      3 S               1
                        (      11.952 eV)
     4       4       --        22.025 au  C             1.00      4 S               1
                        (     599.322 eV)
     5       5      0.667      -0.188 au  C             1.00      1 P:x             1
                        (      -5.117 eV)
     6       6       --         0.484 au  C             1.00      2 P:x             1
                        (      13.170 eV)
     7       7      0.667      -0.188 au  C             1.00      1 P:y             1
                        (      -5.117 eV)
     8       8       --         0.484 au  C             1.00      2 P:y             1
                        (      13.170 eV)
     9       9      0.667      -0.188 au  C             1.00      1 P:z             1
                        (      -5.117 eV)
    10      10       --         0.484 au  C             1.00      2 P:z             1
                        (      13.170 eV)
    11      11      1.000      -0.244 au  H             1.00      1 S               2
                        (      -6.637 eV)
    12      12       --         0.419 au  H             1.00      2 S               2
                        (      11.415 eV)
    13      13      1.000      -0.244 au  H             1.00      1 S               3
                        (      -6.637 eV)
    14      14       --         0.419 au  H             1.00      2 S               3
                        (      11.415 eV)
    15      15      1.000      -0.244 au  H             1.00      1 S               4
                        (      -6.637 eV)
    16      16       --         0.419 au  H             1.00      2 S               4
                        (      11.415 eV)
    17      17      1.000      -0.244 au  H             1.00      1 S               5
                        (      -6.637 eV)
    18      18       --         0.419 au  H             1.00      2 S               5
                        (      11.415 eV)
    19      19      1.000      -0.244 au  H             1.00      1 S               6
                        (      -6.637 eV)
    20      20       --         0.419 au  H             1.00      2 S               6
                        (      11.415 eV)



 ================================
 (Slater-type)  F U N C T I O N S  ***  (Basis and Fit)  ***
 ================================
  

 Atom Type    1  (C)
 ==============

 Valence Basis Sets:   6
 -----------------------
   1 S    7.680000
   1 S    5.000000
   2 S    1.980000
   2 S    1.240000
   2 P    2.200000
   2 P    0.960000

 Charge Fitting Sets (for the computation of the Coulomb Potential):  22
 -----------------------------------------------------------------------
   1 S   15.360000
   2 S   17.530000
   2 S   12.070000
   2 S    8.310000
   2 S    5.730000
   3 S    5.780000
   3 S    4.220000
   3 S    3.080000
   3 S    2.250000
   3 S    1.640000
   2 P    9.880000
   2 P    5.800000
   3 P    5.050000
   3 P    3.230000
   3 P    2.060000
   3 D    7.200000
   3 D    4.400000
   3 D    2.690000
   3 D    1.640000
   4 F    5.400000
   4 F    3.550000
   5 G    4.500000

 Atom Type    2  (H)
 ==============

 Valence Basis Sets:   2
 -----------------------
   1 S    0.760000
   1 S    1.280000

 Charge Fitting Sets (for the computation of the Coulomb Potential):  11
 -----------------------------------------------------------------------
   1 S    3.160000
   1 S    2.090000
   1 S    1.380000
   2 S    1.500000
   2 P    4.000000
   2 P    2.650000
   2 P    1.750000
   3 D    4.000000
   3 D    2.500000
   4 F    3.000000
   5 G    4.000000


 BAS: List of all Elementary Cartesian Basis Functions
 =====================================================

 The numbering in the list below (to the right of the function characteristics) is referred
 to in print-outs of MO eigenvectors and Mulliken populations in the BAS representation
 (as contrasted to the SFO representation).

 Notes:
 1. The functions are characterized by a polynomial prefactor (powers of x,y,z and r) and
    an exponential decay factor alpha.
 2. Since the basis sets are specific for an atom TYPE, the individual functions occur on
    all atoms of that type.
 3. The word 'Core' in the left margin signals that it is a Core Function (CF) : not a
    degree of freedom in the valence set, but only used to ensure orthogonalization of
    the other valence basis functions on the frozen Core Orbitals.


 (power of) X  Y  Z  R     Alpha  on Atom
            ==========     =====     ==========

 C                                    1
                                  ---------------------------------------------------------------------------
            0  0  0  0     7.680      1
            0  0  0  0     5.000      2
            0  0  0  1     1.980      3
            0  0  0  1     1.240      4
            1  0  0  0     2.200      5
            0  1  0  0     2.200      6
            0  0  1  0     2.200      7
            1  0  0  0     0.960      8
            0  1  0  0     0.960      9
            0  0  1  0     0.960     10

 H                                    2    3    4    5    6
                                  ---------------------------------------------------------------------------
            0  0  0  0     0.760     11   13   15   17   19
            0  0  0  0     1.280     12   14   16   18   20

 Total number of charge fitting functions (nprimf)       334
 Total number of Cartesian basis functions (naos)         20
 Total number of Cartesian core functions  (ncos)          0

1
 ***************************************************************************************************



                                              ***********************
                                              *  T E C H N I C A L  *
                                              ***********************
  



 =============================================================
 P A R A L L E L I Z A T I O N  and  V E C T O R I Z A T I O N
 =============================================================
  
 Nr of parallel processes:                               10
 Maximum vector length in NumInt loops:                 128



 =====================
 S C F   U P D A T E S
 =====================
  
 Max. nr. of cycles:                               300
 Convergence criterion:                              0.0000010000
   secondary criterion:                              0.0010000000

 Mix parameter (when DIIS does not apply):           0.2000000000
 Mixed ADIIS+SDIIS will be used                  
    Max number of expansion vectors:                10
    Pure ADIIS when Max([F,P]) is above              0.1000000000
    Pure SDIIS when Max([F,P]) is below              0.0010000000
 Automatic ElectronSmearing (in case of problematic SCF convergence) disabled



 =================
 P R E C I S I O N  ***  (General: NumInt, NeglectFunctionTails, ...)  ***
 =================
  

 NumInt:           Target precision:                 4.0000000000
 -------           Initial precision:                4.0000000000
                   Min. precision (optimization):    4.0000000000

 Neglect Functions:          Basis functions:        0.1000000000E-05
 ------------------          Fit functions:          0.1000000000E-05



 ===========================
 L I N E A R   S C A L I N G
 ===========================
  

 Cut-off radii density fit:                        0.1000000000E-07
 Overlap cut-off criterion AO matrix elements:     0.1000000000E-05
 Cut-offs for Coulomb potential and fitted density:0.1000000000E-07
 Cut-off criterion for Coulomb multipole terms:    0.1000000000E-07
 Progressive Convergence parameter:                 0.000000000    
1
 ***************************************************************************************************



                                            ***************************
                                            *  C O M P U T A T I O N  *
                                            ***************************
  

 Number of elements of the density matrix on this node (used, total):        55       210



 ===========================================
 Numerical Integration : Fuzzy Cells (Becke)
 ===========================================
  
 Becke grid quality: NORMAL         
  
 Lebedev angular grid order:             min:  11 max:  23
 Nr. of radial points:                   min:  46 max:  52

 Total nr. of points:      36256
 Nr. of blocks:              284
 Block length:               128
 Nr. of dummy points:         96


 Test of Precision of the Numerical Integration Grid
 ===================================================

 Integral of the Total Core Density:                   0.00000000000000



 ========================
 Density Fitting (zlmFit)
 ========================
  
 ZlmFit Fit Quality: NORMAL         
  
 Max L-expansion:                        min:   4 max:   5
 Nr. of radial interpolation points:     min:  36 max:  48



 ======================
 RI Hartree-Fock Scheme
 ======================
  
 Fit Set Quality     : NORMAL
 Threshold Quality   : NORMAL
 Integration Quality : NORMAL
 Fit Generation Method : AUTO
 Response Quality    : DEFAULT
 Is Range Separated  :  F
 
 RIHartreeFock Dependency: number of modified vectors:           0



 =====
 S C F  ***  ScaSCF  ***
 =====
  
 Initial density matrix is calculated as sum of fragments

 CYCLE    1
 SCF Error: norm([F,P])=      2.424687375308, max([F,P])=      0.526362550158
 ***** SPIN 1 *****
 orbitals (Q,E):
 ---------------
 A :1...16           ( 1.00   -10.4966)  ( 1.00    -0.9377)  ( 1.00    -0.5622)  ( 1.00    -0.5621)
                     ( 1.00    -0.5554)  ( 1.00    -0.2784)  ( 0.00    -0.0255)  ( 0.00     0.0483)
                     ( 0.00     0.0485)  ( 0.00     0.0997)  ( 0.00     0.3304)  ( 0.00     0.3306)
                     ( 0.00     0.3684)  ( 0.00     0.4264)  ( 0.00     0.6651)  ( 0.00     0.7554)
 ***** SPIN 2 *****
 orbitals (Q,E):
 ---------------
 A :1...15           ( 1.00   -10.4966)  ( 1.00    -0.9377)  ( 1.00    -0.5622)  ( 1.00    -0.5621)
                     ( 1.00    -0.5554)  ( 0.00    -0.2784)  ( 0.00    -0.0255)  ( 0.00     0.0483)
                     ( 0.00     0.0485)  ( 0.00     0.0997)  ( 0.00     0.3304)  ( 0.00     0.3306)
                     ( 0.00     0.3684)  ( 0.00     0.4264)  ( 0.00     0.6651)
  
 Spin polar: 1 (Spin_A minus Spin_B electrons)

 CYCLE    2
  SDIIS (wt  0.000):  0.0777  0.9223
 A-DIIS (wt  1.000):  0.5714  0.4286
  DIIS coefficients:  0.5714  0.4286
 SCF Error: norm([F,P])=      0.582678179116, max([F,P])=      0.092053658739
 ***** SPIN 1 *****
 orbitals (Q,E):
 ---------------
 A :1...7            ( 1.00   -10.1977)  ( 1.00    -0.7813)  ( 1.00    -0.4857)  ( 1.00    -0.4485)
                     ( 1.00    -0.4484)  ( 1.00    -0.2266)  ( 0.00     0.0299)
 ***** SPIN 2 *****
 orbitals (Q,E):
 ---------------
 A :1...6            ( 1.00   -10.1943)  ( 1.00    -0.7729)  ( 1.00    -0.4626)  ( 1.00    -0.4459)
                     ( 1.00    -0.4458)  ( 0.00    -0.1717)
  
 Spin polar: 1 (Spin_A minus Spin_B electrons)

 CYCLE    3
  SDIIS (wt  0.000):  0.0046  0.0483  0.9471
 A-DIIS (wt  1.000):  0.0000  0.0000  1.0000
  DIIS coefficients:  0.0000  0.0000  1.0000
 SCF Error: norm([F,P])=      0.069569565881, max([F,P])=      0.016036171513
 ***** SPIN 1 *****
 orbitals (Q,E):
 ---------------
 A :1...7            ( 1.00   -10.2181)  ( 1.00    -0.7252)  ( 1.00    -0.4528)  ( 1.00    -0.4327)
                     ( 1.00    -0.4326)  ( 1.00    -0.2229)  ( 0.00     0.0489)
 ***** SPIN 2 *****
 orbitals (Q,E):
 ---------------
 A :1...6            ( 1.00   -10.2108)  ( 1.00    -0.7035)  ( 1.00    -0.4260)  ( 1.00    -0.4259)
                     ( 1.00    -0.4076)  ( 0.00    -0.0947)
  
 Spin polar: 1 (Spin_A minus Spin_B electrons)

 CYCLE    4
  SDIIS (wt  0.920): -0.0586  0.1311  0.9275
 A-DIIS (wt  0.080):  0.0000  0.0000  1.0000
  DIIS coefficients: -0.0539  0.1206  0.9333
 SCF Error: norm([F,P])=      0.044539555004, max([F,P])=      0.008911101573
 ***** SPIN 1 *****
 orbitals (Q,E):
 ---------------
 A :1...7            ( 1.00   -10.1989)  ( 1.00    -0.7191)  ( 1.00    -0.4594)  ( 1.00    -0.4263)
                     ( 1.00    -0.4262)  ( 1.00    -0.2310)  ( 0.00     0.0515)
 ***** SPIN 2 *****
 orbitals (Q,E):
 ---------------
 A :1...6            ( 1.00   -10.1910)  ( 1.00    -0.6977)  ( 1.00    -0.4200)  ( 1.00    -0.4199)
                     ( 1.00    -0.4152)  ( 0.00    -0.0978)
  
 Spin polar: 1 (Spin_A minus Spin_B electrons)

 CYCLE    5
  SDIIS (wt  0.988):  0.0015 -0.0605  0.0580  1.0010
 A-DIIS (wt  0.012):  0.0000  0.0000  0.0000  1.0000
  DIIS coefficients:  0.0015 -0.0597  0.0573  1.0010
 SCF Error: norm([F,P])=      0.007830776619, max([F,P])=      0.002235001235
 ***** SPIN 1 *****
 orbitals (Q,E):
 ---------------
 A :1...7            ( 1.00   -10.2011)  ( 1.00    -0.7203)  ( 1.00    -0.4572)  ( 1.00    -0.4278)
                     ( 1.00    -0.4277)  ( 1.00    -0.2304)  ( 0.00     0.0508)
 ***** SPIN 2 *****
 orbitals (Q,E):
 ---------------
 A :1...6            ( 1.00   -10.1929)  ( 1.00    -0.6987)  ( 1.00    -0.4215)  ( 1.00    -0.4214)
                     ( 1.00    -0.4139)  ( 0.00    -0.0951)
  
 Spin polar: 1 (Spin_A minus Spin_B electrons)

 CYCLE    6
  SDIIS (wt  1.000):  0.0015 -0.0106 -0.0693  0.0273  1.0510
  DIIS coefficients:  0.0015 -0.0106 -0.0693  0.0273  1.0510
 SCF Error: norm([F,P])=      0.002226187412, max([F,P])=      0.000489162665
 ***** SPIN 1 *****
 orbitals (Q,E):
 ---------------
 A :1...7            ( 1.00   -10.2004)  ( 1.00    -0.7196)  ( 1.00    -0.4571)  ( 1.00    -0.4270)
                     ( 1.00    -0.4269)  ( 1.00    -0.2306)  ( 0.00     0.0512)
 ***** SPIN 2 *****
 orbitals (Q,E):
 ---------------
 A :1...6            ( 1.00   -10.1920)  ( 1.00    -0.6980)  ( 1.00    -0.4207)  ( 1.00    -0.4206)
                     ( 1.00    -0.4140)  ( 0.00    -0.0948)
  
 Spin polar: 1 (Spin_A minus Spin_B electrons)

 CYCLE    7
  SDIIS (wt  1.000): -0.0001  0.0018  0.0049 -0.0173 -0.0914  1.1021
  DIIS coefficients: -0.0001  0.0018  0.0049 -0.0173 -0.0914  1.1021
 SCF Error: norm([F,P])=      0.000157596045, max([F,P])=      0.000034758551
 ***** SPIN 1 *****
 orbitals (Q,E):
 ---------------
 A :1...7            ( 1.00   -10.2004)  ( 1.00    -0.7196)  ( 1.00    -0.4571)  ( 1.00    -0.4270)
                     ( 1.00    -0.4269)  ( 1.00    -0.2306)  ( 0.00     0.0512)
 ***** SPIN 2 *****
 orbitals (Q,E):
 ---------------
 A :1...6            ( 1.00   -10.1920)  ( 1.00    -0.6980)  ( 1.00    -0.4207)  ( 1.00    -0.4206)
                     ( 1.00    -0.4140)  ( 0.00    -0.0948)
  
 Spin polar: 1 (Spin_A minus Spin_B electrons)

 CYCLE    8
  SDIIS (wt  1.000): -0.0000  0.0004  0.0025 -0.0012 -0.0366 -0.0048  1.0398
  DIIS coefficients: -0.0000  0.0004  0.0025 -0.0012 -0.0366 -0.0048  1.0398
 SCF Error: norm([F,P])=      0.000051576331, max([F,P])=      0.000013021887
 ***** SPIN 1 *****
 orbitals (Q,E):
 ---------------
 A :1...7            ( 1.00   -10.2004)  ( 1.00    -0.7196)  ( 1.00    -0.4571)  ( 1.00    -0.4270)
                     ( 1.00    -0.4269)  ( 1.00    -0.2306)  ( 0.00     0.0512)
 ***** SPIN 2 *****
 orbitals (Q,E):
 ---------------
 A :1...6            ( 1.00   -10.1920)  ( 1.00    -0.6980)  ( 1.00    -0.4207)  ( 1.00    -0.4206)
                     ( 1.00    -0.4140)  ( 0.00    -0.0948)
  
 Spin polar: 1 (Spin_A minus Spin_B electrons)

 CYCLE    9
  SDIIS (wt  1.000):  0.0000 -0.0002 -0.0007  0.0013  0.0123 -0.0929 -0.1515  1.2317
  DIIS coefficients:  0.0000 -0.0002 -0.0007  0.0013  0.0123 -0.0929 -0.1515  1.2317
 SCF Error: norm([F,P])=      0.000013081022, max([F,P])=      0.000002910280
 ***** SPIN 1 *****
 orbitals (Q,E):
 ---------------
 A :1...7            ( 1.00   -10.2004)  ( 1.00    -0.7196)  ( 1.00    -0.4571)  ( 1.00    -0.4270)
                     ( 1.00    -0.4269)  ( 1.00    -0.2306)  ( 0.00     0.0512)
 ***** SPIN 2 *****
 orbitals (Q,E):
 ---------------
 A :1...6            ( 1.00   -10.1920)  ( 1.00    -0.6980)  ( 1.00    -0.4207)  ( 1.00    -0.4206)
                     ( 1.00    -0.4140)  ( 0.00    -0.0948)
  
 Spin polar: 1 (Spin_A minus Spin_B electrons)

 CYCLE   10
  SDIIS (wt  1.000): -0.0000  0.0000  0.0001 -0.0003 -0.0010  0.0163 -0.0065 -0.1798  1.1713
  DIIS coefficients: -0.0000  0.0000  0.0001 -0.0003 -0.0010  0.0163 -0.0065 -0.1798  1.1713
 SCF Error: norm([F,P])=      0.000001713631, max([F,P])=      0.000000477145
 ***** SPIN 1 *****
 orbitals (Q,E):
 ---------------
 A :1...7            ( 1.00   -10.2004)  ( 1.00    -0.7196)  ( 1.00    -0.4571)  ( 1.00    -0.4270)
                     ( 1.00    -0.4269)  ( 1.00    -0.2306)  ( 0.00     0.0512)
 ***** SPIN 2 *****
 orbitals (Q,E):
 ---------------
 A :1...6            ( 1.00   -10.1920)  ( 1.00    -0.6980)  ( 1.00    -0.4207)  ( 1.00    -0.4206)
                     ( 1.00    -0.4140)  ( 0.00    -0.0948)
  
 Spin polar: 1 (Spin_A minus Spin_B electrons)

 SCF CONVERGED

 CYCLE   11
1
 ***************************************************************************************************



                                                *******************
                                                *  R E S U L T S  *
                                                *******************
  
  
 Hartree-Fock exchange energy:   -6.79901636975631     
 *** Using FIT density in Focky
  SDIIS (wt  1.000):  0.0000 -0.0000  0.0000  0.0000 -0.0001 -0.0010  0.0047  0.0070 -0.2528  1.2422
  DIIS coefficients:  0.0000 -0.0000  0.0000  0.0000 -0.0001 -0.0010  0.0047  0.0070 -0.2528  1.2422
 SCF Error: norm([F,P])=      0.000000326008, max([F,P])=      0.000000099490


                                   ***** SPIN 1 *****

 Orbital Energies, per Irrep and Spin:
 ======================================
                        Occup              E (au)              E (eV)       Diff (eV) with prev. cycle
                        -----      --------------------        ------       --------------------------
 A
               1        1.000     -0.10200385853092E+02      -277.567              -1.52E-06
               2        1.000     -0.71959351606568E+00       -19.581              -1.99E-06
               3        1.000     -0.45708933341836E+00       -12.438               1.30E-06
               4        1.000     -0.42703143350876E+00       -11.620              -1.44E-06
               5        1.000     -0.42692282794344E+00       -11.617              -1.51E-06
               6        1.000     -0.23057905129691E+00        -6.274              -3.14E-07
               7        0.000      0.51189699249256E-01         1.393
               8        0.000      0.14640166317010E+00         3.984
               9        0.000      0.14644976581876E+00         3.985
              10        0.000      0.18628456471715E+00         5.069
              11        0.000      0.42451182040713E+00        11.552
              12        0.000      0.42480411882734E+00        11.560
              13        0.000      0.43835273035737E+00        11.928
              14        0.000      0.53649018314758E+00        14.599
              15        0.000      0.79583647348562E+00        21.656
              16        0.000      0.92317065994366E+00        25.121
  
 HOMO :        6 A                -0.23057905129691E+00
 LUMO :        7 A                 0.51189699249256E-01
  


                                   ***** SPIN 2 *****

 Orbital Energies, per Irrep and Spin:
 ======================================
                        Occup              E (au)              E (eV)       Diff (eV) with prev. cycle
                        -----      --------------------        ------       --------------------------
 A
               1        1.000     -0.10191976873870E+02      -277.338              -3.04E-07
               2        1.000     -0.69796233771677E+00       -18.993               1.28E-07
               3        1.000     -0.42071882085144E+00       -11.448              -3.17E-07
               4        1.000     -0.42061397567084E+00       -11.445              -3.78E-07
               5        1.000     -0.41397305477445E+00       -11.265              -7.15E-07
               6        0.000     -0.94795114409902E-01        -2.580
               7        0.000      0.57334536122610E-01         1.560
               8        0.000      0.15148040553723E+00         4.122
               9        0.000      0.15151177940542E+00         4.123
              10        0.000      0.20844414805155E+00         5.672
              11        0.000      0.42513719910244E+00        11.569
              12        0.000      0.42539523479085E+00        11.576
              13        0.000      0.49385082069353E+00        13.438
              14        0.000      0.56786431544146E+00        15.452
              15        0.000      0.82388061550696E+00        22.419
  
 HOMO :        5 A                -0.41397305477445E+00
 LUMO :        6 A                -0.94795114409902E-01
  


 Orbital Energies, both Spins
 ========================================

 Irrep        no.  (spin)   Occup              E (au)                E (eV)
 ---------------------------------------------------------------------------
 A             1     A       1.00       -0.10200385853092E+02      -277.5666
 A             1      B      1.00       -0.10191976873870E+02      -277.3378
 A             2     A       1.00       -0.71959351606568E+00       -19.5811
 A             2      B      1.00       -0.69796233771677E+00       -18.9925
 A             3     A       1.00       -0.45708933341836E+00       -12.4380
 A             4     A       1.00       -0.42703143350876E+00       -11.6201
 A             5     A       1.00       -0.42692282794344E+00       -11.6172
 A             3      B      1.00       -0.42071882085144E+00       -11.4483
 A             4      B      1.00       -0.42061397567084E+00       -11.4455
 A             5      B      1.00       -0.41397305477445E+00       -11.2648
 A             6     A       1.00       -0.23057905129691E+00        -6.2744
 A             6      B      0.00       -0.94795114409902E-01        -2.5795
 A             7     A       0.00        0.51189699249256E-01         1.3929
 A             7      B      0.00        0.57334536122610E-01         1.5602
 A             8     A       0.00        0.14640166317010E+00         3.9838
 A             9     A       0.00        0.14644976581876E+00         3.9851
 A             8      B      0.00        0.15148040553723E+00         4.1220
 A             9      B      0.00        0.15151177940542E+00         4.1228
 A            10     A       0.00        0.18628456471715E+00         5.0691
 A            10      B      0.00        0.20844414805155E+00         5.6721
 A            11     A       0.00        0.42451182040713E+00        11.5516
 A            12     A       0.00        0.42480411882734E+00        11.5595
 A            11      B      0.00        0.42513719910244E+00        11.5686
 A            12      B      0.00        0.42539523479085E+00        11.5756
 A            13     A       0.00        0.43835273035737E+00        11.9282
 A            13      B      0.00        0.49385082069353E+00        13.4384
 A            14     A       0.00        0.53649018314758E+00        14.5986
 A            14      B      0.00        0.56786431544146E+00        15.4524
 A            15     A       0.00        0.79583647348562E+00        21.6558
 A            15      B      0.00        0.82388061550696E+00        22.4189
 A            16     A       0.00        0.92317065994366E+00        25.1208
 A            17     A       0.00        0.92329605558840E+00        25.1242
 A            16      B      0.00        0.92944634297040E+00        25.2915
 A            17      B      0.00        0.92953890011426E+00        25.2940
 A            18     A       0.00        0.10455113209101E+01        28.4498
 A            18      B      0.00        0.10550415909904E+01        28.7091
 A            19     A       0.00        0.13076140103529E+01        35.5820
 A            19      B      0.00        0.13259301397215E+01        36.0804
 A            20     A       0.00        0.24414703733861E+02       664.3579
 A            20      B      0.00        0.24424294260495E+02       664.6189
  
 Spin polar: 1 (Spin_A minus Spin_B electrons)


 All Electron Calculation, thus no Orbital Energies of the Core Orbitals are calculated


 Fit test: (difference of exact and fit density, squared integrated, result summed over spins)
         Sum-of-Fragments:                             0.00000000008031
         Orthogonalized Fragments:                     0.00009718547651
         SCF:                                          0.00029399670208



 ==========================
 Electron Density at Nuclei
 ==========================
  
 The electron density is calculated at points on a small sphere around the center of a nucleus.
 The printed electron density is the average electron density on these points.
 The radius of the sphere is the printed approximate finite nuclear radius.

         Atom        Nuclear Radius (Angstrom)             Electron Density (a.u.)
         ----        -------------------------             -----------------------
     1)   C                 0.0000320678                              126.08325
     2)   H                 0.0000181514                                0.50949
     3)   H                 0.0000181514                                0.51005
     4)   H                 0.0000181514                                0.50976
     5)   H                 0.0000181514                                0.43945
     6)   H                 0.0000181514                                0.39777



 =======================================
 M U L L I K E N   P O P U L A T I O N S
 =======================================
  
 The survey below gives for each atom:
 a) the total charge (Z minus electrons)
 b) the net spin polarization (nr of electrons spin-A minus spin-B)
 c) for each spin the atomic electron valence density (integrated) per L-value.

 Atom              Charge    Spin density          S         P         D         F
 ----              ------    ------------       ------    ------    ------    ------
 1 C              -0.6856          0.5271   A:  1.7049    1.9015    0.0000    0.0000
                                            B:  1.6536    1.4256    0.0000    0.0000
 2 H               0.2236         -0.0205   A:  0.3779    0.0000    0.0000    0.0000
                                            B:  0.3984    0.0000    0.0000    0.0000
 3 H               0.2230         -0.0205   A:  0.3782    0.0000    0.0000    0.0000
                                            B:  0.3987    0.0000    0.0000    0.0000
 4 H               0.2235         -0.0205   A:  0.3780    0.0000    0.0000    0.0000
                                            B:  0.3985    0.0000    0.0000    0.0000
 5 H               0.0227         -0.1498   A:  0.4138    0.0000    0.0000    0.0000
                                            B:  0.5636    0.0000    0.0000    0.0000
 6 H              -0.0072          0.6842   A:  0.8457    0.0000    0.0000    0.0000
                                            B:  0.1615    0.0000    0.0000    0.0000

 Populations of individual BAS functions
 ----------------------------------------
 1 C            0.2380  0.7552  0.4721  0.2396  0.3129  0.3330  0.3094  0.3028  0.3485  0.2950
         B:     0.2382  0.7558  0.4363  0.2233  0.2691  0.1820  0.2843  0.2516  0.1733  0.2654
 2 H           -0.0902  0.4681
         B:    -0.0753  0.4737
 3 H           -0.0903  0.4686
         B:    -0.0754  0.4741
 4 H           -0.0903  0.4683
         B:    -0.0754  0.4739
 5 H            0.0243  0.3895
         B:     0.1671  0.3965
 6 H            0.4216  0.4240
         B:    -0.0280  0.1895

 Gross Charges per Atom (Z minus electrons)
 ==========================================
            -0.6856    0.2236    0.2230    0.2235    0.0227   -0.0072
 Net Total:  0.00000000


 Atom-Atom Population Matrix (off-diagonal elements not doubled)
 ===============================================================


                                   ***** SPIN 1 *****

     1 :     3.1699
     2 :     0.1808    0.2046
     3 :     0.1809   -0.0026    0.2049
     4 :     0.1808   -0.0026   -0.0026    0.2047
     5 :     0.1134   -0.0062   -0.0062   -0.0062    0.2352
     6 :    -0.2195    0.0038    0.0039    0.0038    0.0837    0.9699

                                   ***** SPIN 2 *****

     1 :     2.3856
     2 :     0.1950    0.2256
     3 :     0.1950   -0.0034    0.2258
     4 :     0.1950   -0.0034   -0.0034    0.2257
     5 :     0.0957   -0.0145   -0.0145   -0.0146    0.4276
     6 :     0.0131   -0.0008   -0.0008   -0.0008    0.0839    0.0669



 =================================================
 H I R S H F E L D   C H A R G E   A N A L Y S I S
 =================================================
  
 For each fragment: the (numerical) integral of rho(scf) * rho(fragment)/rho(sum-of-fragments)
 (nuclear charges are included, electrons are counted negative)

 The fragments and their ordering are defined in the early G E O M E T R Y output section.
 If you use single-atom fragments, this usually implies that all atoms of the same
 chemical type are grouped together. This may not be the order in which you listed them
 in the input file!

    1  C                        -0.1089
    2  H                         0.0444
    3  H                         0.0442
    4  H                         0.0443
    5  H                        -0.0036
    6  H                        -0.0204

 Sum of these charges (accuracy NumInt/Tails) =           0.00000807



 =============================
 V O R O N O I   C H A R G E S
 =============================
  
 For each atom: the (numerical) integral of the total electronic charge density in its Voronoi cell,
 i.e. the region of space that is closer to that atom than to any other atom.
 (cf. Wigner-Seitz cells in crystals)

 Within the Voronoi cell the subintegrals over the atomic sphere and the remaining part are evaluated
 separately to give the numbers of electrons (negative charge) in these regions.
 The net total charge in the cell (including the nuclear charge) is also given.

 Values are provided for
    a) the Initial (sum-of-fragments) density
    b) the Orthogonalized-Fragments density
    c) the SCF density
    d) the Voronoi Deformation Density (VDD): the difference SCF-Initial for the complete atomic cell


  Atom                Initial                    OrthFrag                   SCF
             Sphere RestCell NetTotal   Sphere RestCell NetTotal   Sphere RestCell NetTotal      VDD
 -----       ------------------------   ------------------------   ------------------------    -----
    1 C      -2.256   -1.963    1.781   -2.413   -2.300    1.287   -2.299   -2.057    1.644   -0.137
    2 H      -0.072   -1.403   -0.475   -0.095   -1.257   -0.352   -0.109   -1.319   -0.428    0.047
    3 H      -0.072   -1.419   -0.491   -0.094   -1.268   -0.363   -0.109   -1.333   -0.441    0.050
    4 H      -0.072   -1.408   -0.481   -0.095   -1.261   -0.356   -0.109   -1.325   -0.434    0.047
    5 H      -0.069   -1.237   -0.307   -0.126   -1.054   -0.180   -0.094   -1.194   -0.288    0.019
    6 H      -0.064   -0.963   -0.027   -0.085   -0.952   -0.037   -0.084   -0.968   -0.053   -0.026
 ---------------------------------------------------------------------------------------------------
 Total NetCharge:              -0.000                      0.000                      0.000    0.000
 (accuracy NumInt/Tails)

 Remark: the 'NetTotal' Voronoi charges often do not match the Mulliken and/or Hirshfeld charges very
 well. This is caused by the fact that chemically different atoms are not treated in accordance with
 their relative sizes. (Voronoi cells are defined by boundary planes halfway between the atoms.)
 However, the CHANGES in charge, comparing 'Initial' to 'SCF' for instance, do give a fair indication
 of the flow of charge caused by the relaxation from sum-of-fragments to self-consistency.

 Warning: the absolute accuracy of the VDD charges obtained using the Fuzzy Cells (Becke) integration
 scheme is much poorer than the one obtained with an 'equivalent' Voronoi integration grid. 



 =================================================================
 M U L T I P O L E   D E R I V E D   C H A R G E   A N A L Y S I S
 =================================================================

 This charge analysis uses the atomic multipoles (obtained from the fitted density) up to some level X,
 and reconstructs these multipoles exactly (up to level X) by distributing charges over all atoms.
 This is achieved by using Lagrange multipliers and a weight function to keep the multipoles local.

 Dummy atoms can be included (by setting INCDUM in MDC-block to 1) to obtain a fractional charge.
 This is generally useful and necessary only for small symmetrical molecules, when there are not
 enough degrees of freedom to reconstruct the multipoles.

 Since the atomic multipoles are reconstructed up to level X,
 the molecular multipoles are represented also up to level X.
 The recommended level is to reconstruct up to quadrupole : -> MDC-q charges.

 See: M. Swart, P.Th. van Duijnen, J.G. Snijders, J.Comput.Chem., (2001), p. 79-88.

 ------------------------------------------------------------------------ 
 Atomic electronic multipole moments from SCF equations (a.u.) for spin A
 ------------------------------------------------------------------------ 

   atom        charge        dip-x     dip-y     dip-z      quad-xx   quad-xy   quad-xz   quad-yy   quad-yz   quad-zz
 --------------------------------------------------------------------------------------------------------------------
    1 C     -0.056510     0.001167 -0.001142 -0.000078     0.065542  0.103430 -0.033858 -0.172228  0.068892  0.106686
    2 H     -0.036669    -0.009190  0.018828 -0.001151    -0.051992  0.014608 -0.005569 -0.085928  0.011070  0.137920
    3 H     -0.036859    -0.004526  0.018761 -0.008100     0.104745  0.015739 -0.048145 -0.085594  0.009259 -0.019151
    4 H     -0.036748    -0.012111  0.015054 -0.008215     0.008054  0.065427  0.022090  0.010872  0.043886 -0.018926
    5 H     -0.038568     0.004349 -0.009206  0.003068    -0.022285 -0.035306  0.011731  0.058869 -0.023569 -0.036585
    6 H     -0.294647     0.082898 -0.168227  0.055800    -0.016973 -0.026498  0.008889  0.044542 -0.017981 -0.027569

 ------------------------------------------------------------------------ 
 Atomic electronic multipole moments from SCF equations (a.u.) for spin B
 ------------------------------------------------------------------------ 

   atom        charge        dip-x     dip-y     dip-z      quad-xx   quad-xy   quad-xz   quad-yy   quad-yz   quad-zz
 --------------------------------------------------------------------------------------------------------------------
    1 C      0.322494    -0.012235  0.025413 -0.008684    -0.013940 -0.023140  0.007613  0.038607 -0.015377 -0.024667
    2 H     -0.020419     0.003163 -0.006330 -0.009705    -0.060526 -0.005920 -0.001364 -0.047073  0.002628  0.107599
    3 H     -0.020586    -0.007821 -0.006348  0.006611     0.082011  0.000102 -0.040209 -0.046781 -0.006479 -0.035230
    4 H     -0.020520     0.009751  0.002259  0.006483     0.001320  0.041489  0.029710  0.033658  0.027849 -0.034977
    5 H     -0.011230    -0.006732  0.013750 -0.004708    -0.039583 -0.062230  0.020677  0.104207 -0.041859 -0.064624
    6 H      0.250261    -0.025536  0.051785 -0.017197    -0.015006 -0.023808  0.007882  0.039707 -0.015955 -0.024701

 ----------------------------------------------------- 
 MDC atomic charges (includes spinA + spinB electrons)
 ----------------------------------------------------- 

 The MDC-m charges are just the Monopole terms in the multipole expansion, while for the MDC-d charges
 also the Dipoles are reconstructed. The usually preferred charges are the MDC-q charges.
 These reconstruct the Monopoles, Dipoles and Quadrupoles (both atomic AND molecular).

 Given here are the atomic charges of both spins added. These should be compared
 to the values from a "normal" RESTRICTED calculation.

        Atom    Level:     MDC-m        MDC-d        MDC-q
 ---------------------------------------------------------
     1     C            0.265985     0.231023   -59.001014
     2     H           -0.057088    -0.054991    16.993748
     3     H           -0.057445    -0.054622    17.003778
     4     H           -0.057268    -0.054811    17.021944
     5     H           -0.049798     0.040406     4.985457
     6     H           -0.044386    -0.107003     2.996087

 -------------------------------- 
 MDC spin density (spinA - spinB)
 -------------------------------- 
 Reported here are the the number of Alpha-electrons minus the number of Beta-electrons
 per atom, which usually are regarded as spin densities.

        Atom    Level:     MDC-m        MDC-d        MDC-q
 ---------------------------------------------------------
     1     C            0.379004     0.328333    91.547510
     2     H            0.016250     0.030119   -26.245429
     3     H            0.016273     0.030066   -26.243874
     4     H            0.016228     0.030117   -26.232258
     5     H            0.027337    -0.091019    -7.781829
     6     H            0.544908     0.672385    -4.044119

 --------------------------------------------- 
 Represented total molecular multipole moments
 --------------------------------------------- 

 Given here are the Molecular multipole moments from the atomic charges, and from the Fit Density.
 Note that the atomic charges represent the latter, NOT the ones from the Exact density.

 Reported here are the Molecular multipole moments of both spins added.
 They should be compared to the values from a "normal" RESTRICTED calculation.

            Q (a.u.)             Dipole moment (Debye)                                          Quadrupole moment (a.u.)
                                 x         y         z              xx        xy        xz        yy        yz        zz
------------------------------------------------------------------------------------------------------------------------
MDC-m        -0.0000        0.2457   -0.5011    0.1673          0.1817    0.4319   -0.1427   -0.4818    0.2903    0.3000
MDC-d        -0.0000        0.3046   -0.6165    0.2032          0.3293    0.7766   -0.2579   -0.8659    0.5224    0.5365
MDC-q         0.0000        0.2345   -0.6373    0.0704          0.4369    0.9258   -0.2098   -1.0616    0.6521    0.6247
 
Fit.Dens.    -0.0000        0.3046   -0.6165    0.2032          0.4885    1.1224   -0.3698   -1.2884    0.7549    0.7999



 ==========
 S**2 value  ***  see also R. Bulo et al., J.Am.Chem.Soc., 124 (2002) 13903-13910, note (29)  ***
 ==========
  
                                       exact      expectation value

 Total S2 (S squared)                  0.75000             0.75760



 =============
 Dipole Moment  ***  (Debye)  ***
 =============
  
 Vector   :         0.30051006     -0.61215905      0.20338970
 Magnitude:         0.71162656

 This molecular dipole moment is calculated with analytic integration



 =========================================
 Quadrupole Moment (Buckingham convention)  ***  (a.u.)  ***
 =========================================
  
      quad-xx        quad-xy        quad-xz        quad-yy        quad-yz        quad-zz
      0.48670002     1.15082240    -0.37925167    -1.28586101     0.77480174     0.79916100

 This molecular quadrupole moment is calculated with analytic integration
1



 ===========================
 B O N D I N G   E N E R G Y  ***  (decomposition)  ***
 ===========================
  
*** IMPORTANT NOTE ***

The bond energy is computed as an energy difference between molecule and
fragments. In particular when the fragments are single atoms, they are usually
computed as SPHERICALLY SYMMETRIC and SPIN-RESTRICTED. Obviously, this usually
does NOT represent the true atomic groundstate.

To obtain the 'real' bond energy, (atomic) correction terms must be applied
for the true (multiplet) fragment ground state. See ref: E.J.Baerends,
V.Branchadell, M.Sodupe, Chem.Phys.Lett.265 (1997) 481

General theoretical background on the bond energy decomposition scheme used
here (Morokuma-Ziegler) can be found in the review paper:
F.M. Bickelhaupt and E.J. Baerends,
"Kohn-Sham Density Functional Theory: Predicting and Understanding Chemistry"
In: Rev. Comput. Chem.; Lipkowitz, K. B. and Boyd, D. B., Eds.;
Wiley-VCH: New York, 2000, Vol. 15, 1-86.

Symbols used in the Bickelhaupt-Baerends (BB) paper are given below to make
the direct connection to that paper, where detailed explanations can be found
on the meaning of the various terms.


                                                   hartree              eV         kcal/mol           kJ/mol
                                      --------------------     -----------       ----------      -----------
  pauli hf:                              0.159288153158054          4.3345            99.95           418.21
  elstat hf:                            -0.253620643926392         -6.9014          -159.15          -665.88

Pauli Repulsion
  Kinetic (Delta T^0):                   5.497992212043615        149.6080          3450.04         14434.98
  Delta V^Pauli Coulomb:                -2.295946372621819        -62.4759         -1440.73         -6028.01
  Delta V^Pauli Hybrid-X:               -0.574282872102829        -15.6270          -360.37         -1507.78
  Delta V^Pauli Hybrid-C:               -0.058457429298224         -1.5907           -36.68          -153.48
  Delta V^Pauli HF-Exchange:            -0.094332490768338         -2.5669           -59.19          -247.67
                                      --------------------     -----------       ----------      -----------
  Total Pauli Repulsion:                 2.474973047252405         67.3474          1553.07          6498.04
 (Total Pauli Repulsion =
  Delta E^Pauli in BB paper)

Steric Interaction
  Pauli Repulsion (Delta E^Pauli):       2.474973047252405         67.3474          1553.07          6498.04
  Electrostatic Interaction:            -0.343440943038874         -9.3455          -215.51          -901.70
 (Electrostatic Interaction =
  Delta V_elstat in the BB paper)
                                      --------------------     -----------       ----------      -----------
  Total Steric Interaction:              2.131532104213531         58.0019          1337.56          5596.34
 (Total Steric Interaction =
  Delta E^0 in the BB paper)

Orbital Interactions
  A:                                    -3.142738304341916        -85.5183         -1972.10         -8251.26
  HF orbital correction:                 0.000000006070257          0.0000             0.00             0.00
                                      --------------------     -----------       ----------      -----------
  Total Orbital Interactions:           -3.142738298271659        -85.5183         -1972.10         -8251.26

Alternative Decomposition Orb.Int.
  Kinetic:                              -4.485997859355171       -122.0702         -2815.01        -11777.99
  Coulomb:                               1.540754183702173         41.9261           966.84          4045.25
  XC+HF:                                -0.197494622618659         -5.3741          -123.93          -518.52
  XC only:                              -0.002101560577911         -0.0572            -1.32            -5.52
  HF Orbital:                           -0.195393062040748         -5.3169          -122.61          -513.00
                                      --------------------     -----------       ----------      -----------
  Total Orbital Interactions:           -3.142738298271658        -85.5183         -1972.10         -8251.26

  Residu (E=Steric+OrbInt+Res):         -0.000027805265787         -0.0008            -0.02            -0.07

Total Bonding Energy:                   -1.011233999323914        -27.5171          -634.56         -2654.99


Summary of Bonding Energy (energy terms are taken from the energy decomposition above)
======================================================================================

  Electrostatic Energy:                 -0.343440943038874         -9.3455          -215.51          -901.70
  Kinetic Energy:                        1.011994352688443         27.5378           635.04          2656.99
  Coulomb (Steric+OrbInt) Energy:       -0.755219994185433        -20.5506          -473.91         -1982.83
  XC Energy:                            -0.924567414788050        -25.1588          -580.17         -2427.45
                                      --------------------     -----------       ----------      -----------
  Total Bonding Energy:                 -1.011233999323914        -27.5171          -634.56         -2654.99


Correction terms (incorporated in energies above; only for test purposes):

1. Indication of fit-quality: 1st-order fit-correction used in the energy (hartree):   0.0000369816
2. Electrostatic (Fit correction):   0.0000000000
1



 =======================================================
 S F O   P O P U L A T I O N S ,   M O   A N A L Y S I S
 =======================================================
  
 A Mulliken population analysis is performed on (input-)selected MOs. All populations refer to SFOs.
 BAS populations may have been printed directly after the SCF part.



                                   ***** SPIN 1 *****



                                       === A ===


 SFO contributions (%) per orbital
 (multiplication by the orbital occupation yields the SFO Gross Populations)

 Orb.:        1      2      3      4      5      6      7      8      9     10
 occup:     1.00   1.00   1.00   1.00   1.00   1.00   0.00   0.00   0.00   0.00
 CF+SFO     ----   ----   ----   ----   ----   ----   ----   ----   ----   ----
 ------
      1:  100.03   0.00   0.00   0.00   0.00  -0.00  -0.03  -0.00   0.00  -0.00
      2:    0.00  68.67   0.93   0.00   0.00   2.23   9.31  -0.00  -0.00   1.18
      3:   -0.00  -0.19  -0.09  -0.00  -0.00  -1.10 -35.40   0.00  -0.00  -3.04
      5:    0.00   0.00   5.38  48.50   0.60   7.76   0.72  14.60   7.64   6.14
      6:   -0.00  -0.00  -0.21  -0.32  -0.00  -0.15  -0.30 -15.09  -7.91  -0.37
      7:    0.00   0.01  21.98  11.32   4.27  32.15   2.97   0.54   6.50  25.30
      8:   -0.00  -0.00  -0.88  -0.08  -0.03  -0.60  -1.25  -0.56  -6.72  -1.54
      9:    0.00   0.00   2.39   0.04  55.02   3.51   0.32  11.96  12.93   2.77
     10:   -0.00  -0.00  -0.10  -0.00  -0.37  -0.07  -0.14 -12.36 -13.40  -0.16
     11:   -0.00   9.37   1.61   0.02  21.54   0.74  27.54  30.02  32.47  -0.00
     12:   -0.00  -1.33   0.51   0.00   5.46  -0.12  13.28   2.31   2.51  -0.53
     13:   -0.00   9.39   1.64  16.66   4.86   0.74  27.57  58.86   3.59   0.00
     14:   -0.00  -1.33   0.52   4.23   1.24  -0.12  13.29   4.53   0.28  -0.54
     15:   -0.00   9.38   1.61  15.64   5.91   0.74  27.54   4.83  57.66  -0.00
     16:   -0.00  -1.33   0.51   3.97   1.50  -0.12  13.28   0.37   4.46  -0.53
     17:   -0.01   7.65  32.28   0.00   0.00  -0.29   1.11   0.00  -0.00  59.96
     18:   -0.00  -1.27   2.02   0.00   0.00   1.00   2.00  -0.00  -0.00 -40.22
     19:    0.00   1.31  29.58   0.00   0.00  54.07  -0.83   0.00   0.00  31.12
     20:    0.00  -0.32   0.32   0.00   0.00  -0.39  -0.75   0.00   0.00  20.49


 Summation over all MOs, multiplied by occupation: Total SFO Gross Populations in this Irrep
 ===========================================================================================

     1.00    0.72   -0.01   -0.00    0.62   -0.01    0.70   -0.02    0.61   -0.01    0.33    0.05
     0.33    0.05    0.33    0.05    0.40    0.02    0.85   -0.00



                                   ***** SPIN 2 *****



                                       === A ===


 SFO contributions (%) per orbital
 (multiplication by the orbital occupation yields the SFO Gross Populations)

 Orb.:        1      2      3      4      5      6      7      8      9
 occup:     1.00   1.00   1.00   1.00   1.00   0.00   0.00   0.00   0.00
 CF+SFO     ----   ----   ----   ----   ----   ----   ----   ----   ----
 ------
      1:  100.03   0.00  -0.00  -0.00  -0.00  -0.00  -0.02  -0.00   0.00
      2:    0.00  65.18   0.00  -0.00   0.51   4.30   9.72  -0.00   0.00
      3:   -0.00  -0.22  -0.00  -0.00  -0.15  -2.97 -33.97  -0.00   0.00
      5:   -0.00   0.00  46.37   1.32   4.97   6.63   1.17   7.73  16.00
      6:    0.00   0.01  -0.37  -0.01  -0.23  -0.35  -0.41  -7.54 -15.63
      7:   -0.00   0.02  11.38   3.47  21.73  27.46   4.85   0.02   7.50
      8:    0.00   0.03  -0.09  -0.03  -0.99  -1.46  -1.70  -0.02  -7.31
      9:   -0.00   0.00   0.05  53.02   2.43   3.00   0.53  21.17   5.40
     10:    0.00   0.00  -0.00  -0.42  -0.11  -0.16  -0.19 -20.66  -5.29
     11:   -0.01  10.60   0.02  22.98   1.75   1.06  26.37  48.38  12.37
     12:   -0.00  -1.37   0.00   5.38   0.49   0.12  13.16   4.35   1.12
     13:   -0.00  10.62  16.79   6.34   1.61   1.06  26.38  42.54  18.18
     14:   -0.00  -1.37   3.94   1.49   0.45   0.12  13.17   3.84   1.64
     15:   -0.01  10.61  17.74   5.23   1.77   1.05  26.37   0.19  60.57
     16:   -0.00  -1.37   4.16   1.23   0.49   0.12  13.15   0.02   5.46
     17:   -0.01   7.84   0.00   0.00  47.97   0.95   0.35   0.00   0.00
     18:   -0.00  -1.25   0.00   0.00   1.81   1.66   1.56  -0.00  -0.00
     19:    0.00   0.90   0.00   0.00  15.69  58.16   0.98   0.00   0.00
     20:    0.00  -0.24  -0.00  -0.00  -0.22  -0.73  -1.26   0.00   0.00


 Summation over all MOs, multiplied by occupation: Total SFO Gross Populations in this Irrep
 ===========================================================================================

     1.00    0.66   -0.00    0.00    0.53   -0.01    0.37   -0.01    0.55   -0.01    0.35    0.05
     0.35    0.05    0.35    0.05    0.56    0.01    0.17   -0.00



 List of selected MOs, ordered by energy, with the most significant SFO gross populations
 ========================================================================================

 Each percentage contribution in the table below corres ponds to the indicated SFO.
 In general, a SFO may be a linear combination of several Fragment Orbitals on the same,
 or on symmetry-related Fragments. Only the first 'member' of such a combination is
 specified here. A full definition of all SFOs is given in an earlier part of the output.
 The numbering of the SFOs in this table does NOT include the Core Orbitals, and starts
 from one for each symmetry representation, as in the SFO definition list earlier.


                                       *** SPIN 1 ***


       E(eV)  Occ       MO           %     SFO (first member)   E(eV)  Occ   Fragment
 -------------------------------------------------------------------------------------

     -19.581  1.00     2 A         68.67%     2 S             -15.403  2.00     1 C
                                    9.39%     1 S              -6.637  1.00     3 H
                                    9.38%     1 S              -6.637  1.00     4 H
                                    9.37%     1 S              -6.637  1.00     2 H
                                    7.65%     1 S              -6.637  1.00     5 H
                                   -1.33%     2 S              11.415  0.00     3 H
                                   -1.33%     2 S              11.415  0.00     4 H
                                   -1.33%     2 S              11.415  0.00     2 H
                                    1.31%     1 S              -6.637  1.00     6 H
                                   -1.27%     2 S              11.415  0.00     5 H
     -12.438  1.00     3 A         32.28%     1 S              -6.637  1.00     5 H
                                   29.58%     1 S              -6.637  1.00     6 H
                                   21.98%     1 P:y            -5.117  0.67     1 C
                                    5.38%     1 P:x            -5.117  0.67     1 C
                                    2.39%     1 P:z            -5.117  0.67     1 C
                                    2.02%     2 S              11.415  0.00     5 H
                                    1.64%     1 S              -6.637  1.00     3 H
                                    1.61%     1 S              -6.637  1.00     2 H
                                    1.61%     1 S              -6.637  1.00     4 H
     -11.620  1.00     4 A         48.50%     1 P:x            -5.117  0.67     1 C
                                   16.66%     1 S              -6.637  1.00     3 H
                                   15.64%     1 S              -6.637  1.00     4 H
                                   11.32%     1 P:y            -5.117  0.67     1 C
                                    4.23%     2 S              11.415  0.00     3 H
                                    3.97%     2 S              11.415  0.00     4 H
     -11.617  1.00     5 A         55.02%     1 P:z            -5.117  0.67     1 C
                                   21.54%     1 S              -6.637  1.00     2 H
                                    5.91%     1 S              -6.637  1.00     4 H
                                    5.46%     2 S              11.415  0.00     2 H
                                    4.86%     1 S              -6.637  1.00     3 H
                                    4.27%     1 P:y            -5.117  0.67     1 C
                                    1.50%     2 S              11.415  0.00     4 H
                                    1.24%     2 S              11.415  0.00     3 H
      -6.274  1.00     6 A         54.07%     1 S              -6.637  1.00     6 H
                                   32.15%     1 P:y            -5.117  0.67     1 C
                                    7.76%     1 P:x            -5.117  0.67     1 C
                                    3.51%     1 P:z            -5.117  0.67     1 C
                                    2.23%     2 S             -15.403  2.00     1 C
                                   -1.10%     3 S              11.952  0.00     1 C
                                    1.00%     2 S              11.415  0.00     5 H
       1.393  0.00     7 A        -35.40%     3 S              11.952  0.00     1 C
                                   27.57%     1 S              -6.637  1.00     3 H
                                   27.54%     1 S              -6.637  1.00     4 H
                                   27.54%     1 S              -6.637  1.00     2 H
                                   13.29%     2 S              11.415  0.00     3 H
                                   13.28%     2 S              11.415  0.00     2 H
                                   13.28%     2 S              11.415  0.00     4 H
                                    9.31%     2 S             -15.403  2.00     1 C
                                    2.97%     1 P:y            -5.117  0.67     1 C
                                    2.00%     2 S              11.415  0.00     5 H
                                   -1.25%     2 P:y            13.170  0.00     1 C
                                    1.11%     1 S              -6.637  1.00     5 H
       3.984  0.00     8 A         58.86%     1 S              -6.637  1.00     3 H
                                   30.02%     1 S              -6.637  1.00     2 H
                                  -15.09%     2 P:x            13.170  0.00     1 C
                                   14.60%     1 P:x            -5.117  0.67     1 C
                                  -12.36%     2 P:z            13.170  0.00     1 C
                                   11.96%     1 P:z            -5.117  0.67     1 C
                                    4.83%     1 S              -6.637  1.00     4 H
                                    4.53%     2 S              11.415  0.00     3 H
                                    2.31%     2 S              11.415  0.00     2 H
       3.985  0.00     9 A         57.66%     1 S              -6.637  1.00     4 H
                                   32.47%     1 S              -6.637  1.00     2 H
                                  -13.40%     2 P:z            13.170  0.00     1 C
                                   12.93%     1 P:z            -5.117  0.67     1 C
                                   -7.91%     2 P:x            13.170  0.00     1 C
                                    7.64%     1 P:x            -5.117  0.67     1 C
                                   -6.72%     2 P:y            13.170  0.00     1 C
                                    6.50%     1 P:y            -5.117  0.67     1 C
                                    4.46%     2 S              11.415  0.00     4 H
                                    3.59%     1 S              -6.637  1.00     3 H
                                    2.51%     2 S              11.415  0.00     2 H
       5.069  0.00    10 A         59.96%     1 S              -6.637  1.00     5 H
                                  -40.22%     2 S              11.415  0.00     5 H
                                   31.12%     1 S              -6.637  1.00     6 H
                                   25.30%     1 P:y            -5.117  0.67     1 C
                                   20.49%     2 S              11.415  0.00     6 H
                                    6.14%     1 P:x            -5.117  0.67     1 C
                                   -3.04%     3 S              11.952  0.00     1 C
                                    2.77%     1 P:z            -5.117  0.67     1 C
                                   -1.54%     2 P:y            13.170  0.00     1 C
                                    1.18%     2 S             -15.403  2.00     1 C


                                       *** SPIN 2 ***


       E(eV)  Occ       MO           %     SFO (first member)   E(eV)  Occ   Fragment
 -------------------------------------------------------------------------------------

     -18.993  1.00     2 A         65.18%     2 S             -15.403  2.00     1 C
                                   10.62%     1 S              -6.637  1.00     3 H
                                   10.61%     1 S              -6.637  1.00     4 H
                                   10.60%     1 S              -6.637  1.00     2 H
                                    7.84%     1 S              -6.637  1.00     5 H
                                   -1.37%     2 S              11.415  0.00     3 H
                                   -1.37%     2 S              11.415  0.00     4 H
                                   -1.37%     2 S              11.415  0.00     2 H
                                   -1.25%     2 S              11.415  0.00     5 H
     -11.448  1.00     3 A         46.37%     1 P:x            -5.117  0.67     1 C
                                   17.74%     1 S              -6.637  1.00     4 H
                                   16.79%     1 S              -6.637  1.00     3 H
                                   11.38%     1 P:y            -5.117  0.67     1 C
                                    4.16%     2 S              11.415  0.00     4 H
                                    3.94%     2 S              11.415  0.00     3 H
     -11.445  1.00     4 A         53.02%     1 P:z            -5.117  0.67     1 C
                                   22.98%     1 S              -6.637  1.00     2 H
                                    6.34%     1 S              -6.637  1.00     3 H
                                    5.38%     2 S              11.415  0.00     2 H
                                    5.23%     1 S              -6.637  1.00     4 H
                                    3.47%     1 P:y            -5.117  0.67     1 C
                                    1.49%     2 S              11.415  0.00     3 H
                                    1.32%     1 P:x            -5.117  0.67     1 C
                                    1.23%     2 S              11.415  0.00     4 H
     -11.265  1.00     5 A         47.97%     1 S              -6.637  1.00     5 H
                                   21.73%     1 P:y            -5.117  0.67     1 C
                                   15.69%     1 S              -6.637  1.00     6 H
                                    4.97%     1 P:x            -5.117  0.67     1 C
                                    2.43%     1 P:z            -5.117  0.67     1 C
                                    1.81%     2 S              11.415  0.00     5 H
                                    1.77%     1 S              -6.637  1.00     4 H
                                    1.75%     1 S              -6.637  1.00     2 H
                                    1.61%     1 S              -6.637  1.00     3 H
      -2.580  0.00     6 A         58.16%     1 S              -6.637  1.00     6 H
                                   27.46%     1 P:y            -5.117  0.67     1 C
                                    6.63%     1 P:x            -5.117  0.67     1 C
                                    4.30%     2 S             -15.403  2.00     1 C
                                    3.00%     1 P:z            -5.117  0.67     1 C
                                   -2.97%     3 S              11.952  0.00     1 C
                                    1.66%     2 S              11.415  0.00     5 H
                                   -1.46%     2 P:y            13.170  0.00     1 C
                                    1.06%     1 S              -6.637  1.00     3 H
                                    1.06%     1 S              -6.637  1.00     2 H
                                    1.05%     1 S              -6.637  1.00     4 H
       1.560  0.00     7 A        -33.97%     3 S              11.952  0.00     1 C
                                   26.38%     1 S              -6.637  1.00     3 H
                                   26.37%     1 S              -6.637  1.00     4 H
                                   26.37%     1 S              -6.637  1.00     2 H
                                   13.17%     2 S              11.415  0.00     3 H
                                   13.16%     2 S              11.415  0.00     2 H
                                   13.15%     2 S              11.415  0.00     4 H
                                    9.72%     2 S             -15.403  2.00     1 C
                                    4.85%     1 P:y            -5.117  0.67     1 C
                                   -1.70%     2 P:y            13.170  0.00     1 C
                                    1.56%     2 S              11.415  0.00     5 H
                                   -1.26%     2 S              11.415  0.00     6 H
                                    1.17%     1 P:x            -5.117  0.67     1 C
       4.122  0.00     8 A         48.38%     1 S              -6.637  1.00     2 H
                                   42.54%     1 S              -6.637  1.00     3 H
                                   21.17%     1 P:z            -5.117  0.67     1 C
                                  -20.66%     2 P:z            13.170  0.00     1 C
                                    7.73%     1 P:x            -5.117  0.67     1 C
                                   -7.54%     2 P:x            13.170  0.00     1 C
                                    4.35%     2 S              11.415  0.00     2 H
                                    3.84%     2 S              11.415  0.00     3 H
       4.123  0.00     9 A         60.57%     1 S              -6.637  1.00     4 H
                                   18.18%     1 S              -6.637  1.00     3 H
                                   16.00%     1 P:x            -5.117  0.67     1 C
                                  -15.63%     2 P:x            13.170  0.00     1 C
                                   12.37%     1 S              -6.637  1.00     2 H
                                    7.50%     1 P:y            -5.117  0.67     1 C
                                   -7.31%     2 P:y            13.170  0.00     1 C
                                    5.46%     2 S              11.415  0.00     4 H
                                    5.40%     1 P:z            -5.117  0.67     1 C
                                   -5.29%     2 P:z            13.170  0.00     1 C
                                    1.64%     2 S              11.415  0.00     3 H
                                    1.12%     2 S              11.415  0.00     2 H
       5.672  0.00    10 A         42.41%     1 S              -6.637  1.00     5 H
                                  -37.84%     2 S              11.415  0.00     5 H
                                   36.22%     1 S              -6.637  1.00     6 H
                                   29.40%     1 P:y            -5.117  0.67     1 C
                                   21.71%     2 S              11.415  0.00     6 H
                                    7.15%     1 P:x            -5.117  0.67     1 C
                                    3.21%     1 P:z            -5.117  0.67     1 C
                                   -2.95%     3 S              11.952  0.00     1 C
                                    1.49%     2 S             -15.403  2.00     1 C

 Energy gradients wrt nuclear displacements
 ==========================================

     Atom      Cartesian (a.u./angstrom)
                 X         Y         Z
 ----------------------------------------
     1 C     0.011173 -0.022780  0.007640
     2 H    -0.001235  0.002866 -0.000197
     3 H    -0.000754  0.002724 -0.001265
     4 H    -0.001819  0.002263 -0.001046
     5 H    -0.008756  0.017719 -0.005931
     6 H     0.001391 -0.002791  0.000800
 ----------------------------------------



 =======================================================================
 Electrostatic potential at the Nuclei due to electrons and other nuclei
 =======================================================================
  
         Atom                  Potential
         ----                  ---------
     1)   C                  14.74882645
     2)   H                   1.09176603
     3)   H                   1.09017946
     4)   H                   1.09101353
     5)   H                   1.05988342
     6)   H                   1.06047487
 Mulliken charges used for AMS results%charges...
 Continuous PES requested. Disabling symmetry...
 *** adf_CentralGeo ***



 ===========================
 A T T A C H E D   F I L E S
 ===========================
  
 Restart/tmp/amstmp_ams_kid0.1683194044/adf.rkf*** adf ***



 ===============================
 M O D E L   P A R A M E T E R S
 ===============================
  
 DENSITY FUNCTIONAL POTENTIAL (scf)
    Hybrid:                            B3LYP                                   == Not Default ==

 SPIN  (restricted / unrestr.)
    Molecule:                          UNrestricted                            == Not Default ==
    Fragments:                         Restricted                               

 OTHER ASPECTS
    Relativistic Corrections:          ---                                     == Not Default ==

    Nuclear Charge Density Model:      Point Charge Nuclei                      
    Core Treatment:                    Frozen Orbital(s)                        

    Hyperfine or Zeeman Interaction:   ---                                      



 ===============
 G E O M E T R Y  ***  3D  Molecule  ***
 ===============
  

 ATOMS
 =====                            X Y Z                    CHARGE
                                (Angstrom)             Nucl     +Core       At.Mass
                       --------------------------    ----------------       -------
    1  C               0.0241   -0.0486    0.0163      6.00      6.00       12.0000
    2  H               0.0040   -0.0077    1.1022      1.00      1.00        1.0078
[...]
                 X         Y         Z
 ----------------------------------------
     1 C     0.010605 -0.023551  0.006770
     2 H    -0.001409  0.002641 -0.000271
     3 H    -0.000676  0.002817 -0.001209
     4 H    -0.001175  0.003100 -0.000170
     5 H    -0.008746  0.017795 -0.005924
     6 H     0.001401 -0.002803  0.000804
 ----------------------------------------
 Mulliken charges used for AMS results%charges...
 Continuous PES requested. Disabling symmetry...
 *** adf-NumNuclDerivs_displ25 ***
 
 RIHartreeFock Dependency: number of modified vectors:           0
  
 Hartree-Fock exchange energy:   -6.79909229508974     

 Energy gradients wrt nuclear displacements
 ==========================================

     Atom      Cartesian (a.u./angstrom)
                 X         Y         Z
 ----------------------------------------
     1 C     0.011010 -0.023141  0.007757
     2 H    -0.001255  0.002908 -0.000199
     3 H    -0.000847  0.002918 -0.001329
     4 H    -0.001803  0.002200 -0.001034
     5 H    -0.008445  0.018034 -0.006038
     6 H     0.001341 -0.002919  0.000843
 ----------------------------------------
 Mulliken charges used for AMS results%charges...
 Continuous PES requested. Disabling symmetry...
 *** adf-NumNuclDerivs_displ27 ***
 
 RIHartreeFock Dependency: number of modified vectors:           0
  
 Hartree-Fock exchange energy:   -6.79886202557443     

 Energy gradients wrt nuclear displacements
 ==========================================

     Atom      Cartesian (a.u./angstrom)
                 X         Y         Z
 ----------------------------------------
     1 C     0.010805 -0.022379  0.007398
     2 H    -0.001190  0.002780 -0.000193
     3 H    -0.000732  0.002639 -0.001229
     4 H    -0.001706  0.002070 -0.000973
     5 H    -0.008443  0.017538 -0.005715
     6 H     0.001266 -0.002647  0.000712
 ----------------------------------------
 Mulliken charges used for AMS results%charges...
 Continuous PES requested. Disabling symmetry...
 *** adf-NumNuclDerivs_displ29 ***
 
 RIHartreeFock Dependency: number of modified vectors:           0
  
 Hartree-Fock exchange energy:   -6.79906842372774     

 Energy gradients wrt nuclear displacements
 ==========================================

     Atom      Cartesian (a.u./angstrom)
                 X         Y         Z
 ----------------------------------------
     1 C     0.011294 -0.023026  0.007379
     2 H    -0.001330  0.003058 -0.000261
     3 H    -0.000728  0.002691 -0.001259
     4 H    -0.001808  0.002221 -0.001039
     5 H    -0.008861  0.017933 -0.005536
     6 H     0.001433 -0.002876  0.000715
 ----------------------------------------
 Mulliken charges used for AMS results%charges...
 Continuous PES requested. Disabling symmetry...
 *** adf-NumNuclDerivs_displ31 ***
 
 RIHartreeFock Dependency: number of modified vectors:           0
  
 Hartree-Fock exchange energy:   -6.79919603946982     

 Energy gradients wrt nuclear displacements
 ==========================================

     Atom      Cartesian (a.u./angstrom)
                 X         Y         Z
 ----------------------------------------
     1 C     0.011053 -0.022445  0.007529
     2 H    -0.001228  0.002850 -0.000198
     3 H    -0.000744  0.002707 -0.001261
     4 H    -0.001806  0.002256 -0.001036
     5 H    -0.008807  0.017594 -0.005890
     6 H     0.001533 -0.002962  0.000856
 ----------------------------------------
 Mulliken charges used for AMS results%charges...
 Continuous PES requested. Disabling symmetry...
 *** adf-NumNuclDerivs_displ33 ***
 
 RIHartreeFock Dependency: number of modified vectors:           0
  
 Hartree-Fock exchange energy:   -6.79865304438060     

 Energy gradients wrt nuclear displacements
 ==========================================

     Atom      Cartesian (a.u./angstrom)
                 X         Y         Z
 ----------------------------------------
     1 C     0.011508 -0.023416  0.007865
     2 H    -0.001250  0.002896 -0.000195
     3 H    -0.000759  0.002755 -0.001281
     4 H    -0.001838  0.002291 -0.001059
     5 H    -0.008886  0.017868 -0.006018
     6 H     0.001224 -0.002395  0.000688
 ----------------------------------------
 Mulliken charges used for AMS results%charges...
 Continuous PES requested. Disabling symmetry...
 *** adf-NumNuclDerivs_displ35 ***
 
 RIHartreeFock Dependency: number of modified vectors:           0
  
 Hartree-Fock exchange energy:   -6.79913699370915     

 Energy gradients wrt nuclear displacements
 ==========================================

     Atom      Cartesian (a.u./angstrom)
                 X         Y         Z
 ----------------------------------------
     1 C     0.011062 -0.022555  0.007611
     2 H    -0.001229  0.002853 -0.000188
     3 H    -0.000757  0.002714 -0.001260
     4 H    -0.001809  0.002258 -0.001041
     5 H    -0.008714  0.017634 -0.006016
     6 H     0.001447 -0.002905  0.000895
 ----------------------------------------
 Mulliken charges used for AMS results%charges...
Scanning modes in range provided by user.
Scanning Mode: 7
 *** SCANMODE_forward_adf_ScanMode_7 ***
 
 RIHartreeFock Dependency: number of modified vectors:           0
  
 Hartree-Fock exchange energy:   -6.79894606584291     

 Energy gradients wrt nuclear displacements
 ==========================================

     Atom      Cartesian (a.u./angstrom)
                 X         Y         Z
 ----------------------------------------
     1 C     0.010902 -0.022231  0.007459
     2 H    -0.001197  0.002793 -0.000198
     3 H    -0.000743  0.002651 -0.001233
     4 H    -0.001768  0.002207 -0.001013
     5 H    -0.008519  0.017231 -0.005767
     6 H     0.001325 -0.002652  0.000752
 ----------------------------------------
 Mulliken charges used for AMS results%charges...
Old/New Frequency [cm-1]: -1300.168658/-1300.570233



    =====================
     CALCULATION RESULTS
    =====================

Energy (hartree)            -1.01123400

Gradients (hartree/bohr)
  Index   Atom            d/dx            d/dy            d/dz
      1      C    0.0059123375   -0.0120547287    0.0040426955
      2      H   -0.0006533208    0.0015163781   -0.0001041755
      3      H   -0.0003991245    0.0014415703   -0.0006696682
      4      H   -0.0009624721    0.0011973573   -0.0005534138
      5      H   -0.0046334618    0.0093762961   -0.0031385732
      6      H    0.0007360417   -0.0014768732    0.0004231351

 -----------------------
 Normal Mode Frequencies
 -----------------------

 Index   Frequency (cm-1)   Red. mass (u)  F const (Ha/Bohr^2)   Intensity (km/mol)
     7         -1300.5702          1.0915            -0.069872               0.4276
     8           554.1929          1.0384             0.012069               0.3831
     9           560.6873          1.0385             0.012355               0.3918
    10          1226.2791          1.0179             0.057929              15.0254
    11          1325.1444          1.0756             0.071475               5.6453
    12          1328.4876          1.0776             0.071975               5.9188
    13          1393.6480          1.2193             0.089620               2.7667
    14          1476.1320          1.0598             0.087394              10.1913
    15          1478.4206          1.0628             0.087910              10.2591
    16          3045.9392          1.0189             0.357722               2.3633
    17          3188.0990          1.1090             0.426572               5.8999
    18          3195.8311          1.1092             0.428724               5.8013

 Zero-point energy (Hartree):     0.0428

 ------------
 Normal Modes
 ------------

 Number of removed rigid normal modes: 6
 
 Mode:     7      Frequency (cm-1):    -1300.5702     Intensity (km/mol):        0.4276
 Index  Atom      ---- Displacements (x/y/z) ----
     1     C       0.037017  -0.075035   0.024819
     2     H      -0.060372   0.121916   0.003000
     3     H      -0.020103   0.120917  -0.055995
     4     H      -0.085004   0.091064  -0.056586
     5     H      -0.390740   0.797909  -0.266469
     6     H       0.115468  -0.238378   0.080539
 
 Mode:     8      Frequency (cm-1):      554.1929     Intensity (km/mol):        0.3831
 Index  Atom      ---- Displacements (x/y/z) ----
     1     C      -0.047023  -0.023833  -0.000802
     2     H       0.108594   0.063365  -0.001026
     3     H      -0.116701   0.475235  -0.124884
     4     H       0.300918  -0.387199   0.131995
     5     H      -0.279151  -0.137869  -0.005786
     6     H       0.546230   0.270242   0.009255
 
 Mode:     9      Frequency (cm-1):      560.6873     Intensity (km/mol):        0.3918
 Index  Atom      ---- Displacements (x/y/z) ----
     1     C      -0.007400   0.012747   0.050718
     2     H       0.255278  -0.512251   0.073197
     3     H      -0.120691   0.219067  -0.198196
     4     H      -0.089934   0.218310  -0.194473
     5     H      -0.042409   0.077778   0.298976
     6     H       0.085868  -0.154679  -0.583392
 
 Mode:    10      Frequency (cm-1):     1226.2791     Intensity (km/mol):       15.0254
 Index  Atom      ---- Displacements (x/y/z) ----
     1     C      -0.011774   0.026552  -0.008798
     2     H       0.188092  -0.395543   0.023340
     3     H       0.093037  -0.391242   0.167735
     4     H       0.249702  -0.312423   0.172487
     5     H      -0.170321   0.327373  -0.104237
     6     H      -0.220325   0.455683  -0.154568
 
 Mode:    11      Frequency (cm-1):     1325.1444     Intensity (km/mol):        5.6453
 Index  Atom      ---- Displacements (x/y/z) ----
     1     C       0.068388   0.037656   0.008254
     2     H      -0.136401  -0.102148   0.007959
     3     H       0.066902  -0.299956   0.002914
     4     H      -0.185565   0.267783  -0.051994
     5     H      -0.745410  -0.396607  -0.080448
     6     H       0.186186   0.082570   0.023290
 
 Mode:    12      Frequency (cm-1):     1328.4876     Intensity (km/mol):        5.9188
 Index  Atom      ---- Displacements (x/y/z) ----
     1     C       0.016409  -0.015059  -0.076522
     2     H      -0.164870   0.295786  -0.078850
     3     H       0.125740  -0.116278   0.189075
     4     H      -0.024224  -0.119814   0.183790
     5     H      -0.184097   0.177113   0.807190
     6     H       0.052073  -0.057502  -0.190065
 
 Mode:    13      Frequency (cm-1):     1393.6480     Intensity (km/mol):        2.7667
 Index  Atom      ---- Displacements (x/y/z) ----
     1     C      -0.059144   0.119459  -0.038326
     2     H       0.127939  -0.274013  -0.013405
     3     H       0.031755  -0.257061   0.119156
     4     H       0.188947  -0.193195   0.129753
     5     H      -0.000177   0.030077  -0.023539
     6     H       0.355750  -0.728181   0.244374
 
 Mode:    14      Frequency (cm-1):     1476.1320     Intensity (km/mol):       10.1913
 Index  Atom      ---- Displacements (x/y/z) ----
     1     C      -0.013778  -0.026953  -0.061768
     2     H       0.358946  -0.120798  -0.032641
     3     H       0.250132   0.364892   0.597730
     4     H      -0.414883   0.132425   0.291790
     5     H      -0.032263  -0.060479  -0.134439
     6     H       0.002124   0.004883   0.013021
 
 Mode:    15      Frequency (cm-1):     1478.4206     Intensity (km/mol):       10.2591
 Index  Atom      ---- Displacements (x/y/z) ----
     1     C      -0.063232  -0.021624   0.023127
     2     H       0.591725   0.399483   0.013129
     3     H       0.053510  -0.197994   0.227861
     4     H       0.213360   0.094632  -0.564258
     5     H      -0.118601  -0.037854   0.050756
     6     H       0.012894  -0.000791  -0.002852
 
 Mode:    16      Frequency (cm-1):     3045.9392     Intensity (km/mol):        2.3633
 Index  Atom      ---- Displacements (x/y/z) ----
     1     C      -0.014460   0.027290  -0.007032
     2     H      -0.017542   0.034301   0.557245
     3     H       0.542354   0.034527  -0.239546
     4     H      -0.350433  -0.395780  -0.233752
     5     H      -0.005153   0.009105  -0.002795
     6     H       0.002942  -0.007092   0.002579
 
 Mode:    17      Frequency (cm-1):     3188.0990     Intensity (km/mol):        5.8999
 Index  Atom      ---- Displacements (x/y/z) ----
     1     C       0.086703   0.039854  -0.009988
     2     H       0.016168   0.012612   0.096370
     3     H      -0.672180  -0.021919   0.296262
     4     H      -0.384410  -0.467656  -0.272865
     5     H       0.008318   0.003212  -0.000830
     6     H      -0.000255  -0.000781  -0.000009
 
 Mode:    18      Frequency (cm-1):     3195.8311     Intensity (km/mol):        5.8013
 Index  Atom      ---- Displacements (x/y/z) ----
     1     C       0.002299  -0.028292  -0.091754
     2     H      -0.017603   0.029950   0.819890
     3     H      -0.295044  -0.019133   0.108064
     4     H       0.284376   0.328610   0.171263
     5     H       0.000515  -0.002501  -0.007793
     6     H       0.000384  -0.000055   0.001071

 Vibrational polarizability tensor (a.u.):
                  X                   Y                   Z
 X               1.72517            -0.13541             0.07588
 Y              -0.13541             1.93207            -0.07696
 Z               0.07588            -0.07696             1.70851

 Isotropic =      1.7886    atomic units

PES point character: Geometry corresponds to a non-stationary point on the PES.
                     At least one gradient component is too large!
                     (Note: The threshold for what is considered a small enough gradient is
                     configured with the GeometryOptimization%Convergence%Gradients keyword.)




 ============================
 Statistical Thermal Analysis  ***  ideal gas assumed  ***
 ============================
  
 Pressure:                  1.000000 atm.
 Temperature:             298.150000 K



 Moments of Inertia [amu*bohr^2] and principal axis
 ==================================================

          11.9935         30.1573         30.1612
 ------------------------------------------------
          -0.4235          0.3000         -0.8548
           0.8600          0.4298         -0.2752
          -0.2848          0.8516          0.4400


 The rotational contribution to the molecular entropy includes
 a term, dependent on the symmetry number sigma. The results 
 reported below were computed using sigma = 1, determined from
 the point group symmetry of the input geometry (NOSYM). 
 If this is not the correct symmetry, try symmetrizing the molecule before
 running the calculation (note: linear molecules should be aligned along one
 of the Cartesian axes).
 Contributions from frequencies below 20 1/cm are not included in vibrational sums.
 Their contributions, if any, are reported separately.


     Temp                                                        Transl      Rotat     Vibrat     Total
     ----                                                        ------      -----     ------     -----

     298.15   Entropy (cal/mol-K):                               34.443     17.041      1.188     52.672
              Nuclear Internal Energy (kcal/mol):                 0.889      0.889     27.103     28.880
              Constant Volume Heat Capacity (cal/mol-K):          2.981      2.981      2.977      8.938
          (c) Constant Volume Heat Capacity (cal/mol-K):          2.981      2.981      2.977      8.938

       Summary of energy terms
                                                   hartree              eV         kcal/mol           kJ/mol
                                      --------------------     -----------       ----------      -----------
      Energy from Engine:               -1.011233999323914        -27.5171          -634.56         -2654.99
      Nuclear Internal Energy:           0.046023811896939          1.2524            28.88           120.84
  (c) Nuclear Internal Energy:           0.046021295122592          1.2523            28.88           120.83
      Internal Energy U:                -0.965210187426975        -26.2647          -605.68         -2534.16
      pV/n = RT:                         0.000944186013486          0.0257             0.59             2.48
      Enthalpy H:                       -0.964266001413489        -26.2390          -605.09         -2531.68
      -T*S:                             -0.025026243406320         -0.6810           -15.70           -65.71
  (c) -T*S:                             -0.025026872038834         -0.6810           -15.70           -65.71
      Gibbs free energy:                -0.989292244819809        -26.9200          -620.79         -2597.39
 
 
 
  (c) The properties marked with this symbol have been corrected using 'low vibrational frequency free rotor
      interpolation corrections'. For those terms all positive frequencies are used (also ones below 20 1/cm),
      but the contribution to the partition function of small vibrational frequencies is modified as described
      in the following paper:
      S. Grimme, 'Supramolecular Binding Thermodynamics by Dispersion-Corrected Density Functional Theory'
      (Chem. Eur. J. 2012, 18, 9955-9964)
      Configuration: Dampener Frequency          :   100.000 1/cm
                     Dampener Alpha              :     4.000
                     Averaging Moment of Inertia : 1.000E-44 kg m2

--------------
Atomic charges
--------------
  Index   Atom    Charge
      1      C   -0.6856
      2      H    0.2236
      3      H    0.2230
      4      H    0.2235
      5      H    0.0227
      6      H   -0.0072


Dipole moment vector    (Debye):     0.30051006   -0.61215905    0.20338970
              magnitude (Debye):     0.71162656


-----------------------
Molecular orbitals info
-----------------------
n orbitals:               20
n spin:                    2

Note: only printing virtual orbitals with
      energy smaller than HOMO + 100. eV

                     spin-alpha   spin-beta
HOMO (eV):              -6.2744    -11.2648
LUMO (eV):               1.3929     -2.5795
HOMO-LUMO gap (eV):      7.6673      8.6853

Smallest gap (eV):       3.6949

          |======= spin-alpha =======|       |======= spin-beta ========|

   Index   Energy (eV)    Occupation          Energy (eV)    Occupation
      19       35.5820         0.000              36.0804         0.000       
      18       28.4498         0.000              28.7091         0.000       
      17       25.1242         0.000              25.2940         0.000       
      16       25.1208         0.000              25.2915         0.000       
      15       21.6558         0.000              22.4189         0.000       
      14       14.5986         0.000              15.4524         0.000       
      13       11.9282         0.000              13.4384         0.000       
      12       11.5595         0.000              11.5756         0.000       
      11       11.5516         0.000              11.5686         0.000       
      10        5.0691         0.000               5.6721         0.000       
       9        3.9851         0.000               4.1228         0.000       
       8        3.9838         0.000               4.1220         0.000       
       7        1.3929         0.000 < LUMO        1.5602         0.000       
       6       -6.2744         1.000 < HOMO       -2.5795         0.000 < LUMO
       5      -11.6172         1.000             -11.2648         1.000 < HOMO
       4      -11.6201         1.000             -11.4455         1.000       
       3      -12.4380         1.000             -11.4483         1.000       
       2      -19.5811         1.000             -18.9925         1.000       
       1     -277.5666         1.000            -277.3378         1.000       

AMS application finished. Exiting.
NORMAL TERMINATION
     Total cpu time:     101.17
  Total system time:      44.50
 Total elapsed time:     158.26
