 argument  1 = h2o.nw
                                         
                                         


              Northwest Computational Chemistry Package (NWChem) 6.8
              ------------------------------------------------------


                    Environmental Molecular Sciences Laboratory
                       Pacific Northwest National Laboratory
                                Richland, WA 99352

                              Copyright (c) 1994-2017
                       Pacific Northwest National Laboratory
                            Battelle Memorial Institute

             NWChem is an open-source computational chemistry package
                        distributed under the terms of the
                      Educational Community License (ECL) 2.0
             A copy of the license is included with this distribution
                              in the LICENSE.TXT file

                                  ACKNOWLEDGMENT
                                  --------------

            This software and its documentation were developed at the
            EMSL at Pacific Northwest National Laboratory, a multiprogram
            national laboratory, operated for the U.S. Department of Energy
            by Battelle under Contract Number DE-AC05-76RL01830. Support
            for this work was provided by the Department of Energy Office
            of Biological and Environmental Research, Office of Basic
            Energy Sciences, and the Office of Advanced Scientific Computing.


           Job information
           ---------------

    hostname        = romeologin1.ro18.urca
    program         = /home/henon/lib/nwchem-6.8.1/bin/LINUX64/nwchem
    date            = Thu Apr 11 18:16:14 2019

    compiled        = Thu_Apr_11_18:01:01_2019
    source          = /home/henon/lib/nwchem-6.8.1
    nwchem branch   = 6.8.1
    nwchem revision = v6.8-133-ge032219
    ga revision     = 5.6.5
    use scalapack   = F
    input           = h2o.nw
    prefix          = h2o_freq.
    data base       = ./h2o_freq.db
    status          = startup
    nproc           =        1
    time left       =     -1s



           Memory information
           ------------------

    heap     =   13107196 doubles =    100.0 Mbytes
    stack    =   13107201 doubles =    100.0 Mbytes
    global   =   26214400 doubles =    200.0 Mbytes (distinct from heap & stack)
    total    =   52428797 doubles =    400.0 Mbytes
    verify   = yes
    hardfail = no 


           Directory information
           ---------------------

  0 permanent = .
  0 scratch   = .




                                NWChem Input Module
                                -------------------



 Scaling coordinates for geometry "geometry" by  1.889725989
 (inverse scale =  0.529177249)

 C2V symmetry detected

          ------
          auto-z
          ------


                             Geometry "geometry" -> ""
                             -------------------------

 Output coordinates in angstroms (scale by  1.889725989 to convert to a.u.)

  No.       Tag          Charge          X              Y              Z
 ---- ---------------- ---------- -------------- -------------- --------------
    1 O                    8.0000     0.00000000     0.00000000    -0.14142136
    2 H                    1.0000     0.70710678     0.00000000     0.56568542
    3 H                    1.0000    -0.70710678     0.00000000     0.56568542

      Atomic Mass 
      ----------- 

      O                 15.994910
      H                  1.007825


 Effective nuclear repulsion energy (a.u.)       8.8410208052

            Nuclear Dipole moment (a.u.) 
            ----------------------------
        X                 Y               Z
 ---------------- ---------------- ----------------
     0.0000000000     0.0000000000     0.0000000000

      Symmetry information
      --------------------

 Group name             C2v       
 Group number             16
 Group order               4
 No. of unique centers     2

      Symmetry unique atoms

     1    2



                                Z-matrix (autoz)
                                -------- 

 Units are Angstrom for bonds and degrees for angles

      Type          Name      I     J     K     L     M      Value
      ----------- --------  ----- ----- ----- ----- ----- ----------
    1 Stretch                  1     2                       1.00000
    2 Stretch                  1     3                       1.00000
    3 Bend                     2     1     3                90.00000


            XYZ format geometry
            -------------------
     3
 geometry
 O                     0.00000000     0.00000000    -0.14142136
 H                     0.70710678     0.00000000     0.56568542
 H                    -0.70710678     0.00000000     0.56568542

 ==============================================================================
                                internuclear distances
 ------------------------------------------------------------------------------
       center one      |      center two      | atomic units |  angstroms
 ------------------------------------------------------------------------------
    2 H                |   1 O                |     1.88973  |     1.00000
    3 H                |   1 O                |     1.88973  |     1.00000
 ------------------------------------------------------------------------------
                         number of included internuclear distances:          2
 ==============================================================================



 ==============================================================================
                                 internuclear angles
 ------------------------------------------------------------------------------
        center 1       |       center 2       |       center 3       |  degrees
 ------------------------------------------------------------------------------
    2 H                |   1 O                |   3 H                |    90.00
 ------------------------------------------------------------------------------
                            number of included internuclear angles:          1
 ==============================================================================



                      Basis "ao basis" -> "" (cartesian)
                      -----
  H (Hydrogen)
  ------------
            Exponent  Coefficients 
       -------------- ---------------------------------------------------------
  1 S  3.42525091E+00  0.154329
  1 S  6.23913730E-01  0.535328
  1 S  1.68855400E-01  0.444635

  O (Oxygen)
  ----------
            Exponent  Coefficients 
       -------------- ---------------------------------------------------------
  1 S  1.30709320E+02  0.154329
  1 S  2.38088610E+01  0.535328
  1 S  6.44360830E+00  0.444635

  2 S  5.03315130E+00 -0.099967
  2 S  1.16959610E+00  0.399513
  2 S  3.80389000E-01  0.700115

  3 P  5.03315130E+00  0.155916
  3 P  1.16959610E+00  0.607684
  3 P  3.80389000E-01  0.391957



 Summary of "ao basis" -> "" (cartesian)
 ------------------------------------------------------------------------------
       Tag                 Description            Shells   Functions and Types
 ---------------- ------------------------------  ------  ---------------------
 H                           sto-3g                  1        1   1s
 O                           sto-3g                  3        5   2s1p


                             H2O+ : STO-3G b3lyp  freq
                             -------------------------


                   NWChem Nuclear Hessian and Frequency Analysis
                   ---------------------------------------------



                              NWChem Analytic Hessian
                              -----------------------

 restr:                     0

                                 NWChem DFT Module
                                 -----------------


                             H2O+ : STO-3G b3lyp  freq




 Summary of "ao basis" -> "ao basis" (cartesian)
 ------------------------------------------------------------------------------
       Tag                 Description            Shells   Functions and Types
 ---------------- ------------------------------  ------  ---------------------
 H                           sto-3g                  1        1   1s
 O                           sto-3g                  3        5   2s1p


  Caching 1-el integrals 

            General Information
            -------------------
          SCF calculation type: DFT
          Wavefunction type:  closed shell.
          No. of atoms     :     3
          No. of electrons :    10
           Alpha electrons :     5
            Beta electrons :     5
          Charge           :     0
          Spin multiplicity:     1
          Use of symmetry is: off; symmetry adaption is: off
          Maximum number of iterations:  30
          AO basis - number of functions:     7
                     number of shells:     5
          Convergence on energy requested:  1.00D-07
          Convergence on density requested:  1.00D-05
          Convergence on gradient requested:  1.00D-06

              XC Information
              --------------
                         B3LYP Method XC Potential
                     Hartree-Fock (Exact) Exchange  0.200          
                        Slater Exchange Functional  0.800 local    
                    Becke 1988 Exchange Functional  0.720 non-local
              Lee-Yang-Parr Correlation Functional  0.810          
                  VWN I RPA Correlation Functional  0.190 local    

             Grid Information
             ----------------
          Grid used for XC integration:  fine      
          Radial quadrature: Mura-Knowles        
          Angular quadrature: Lebedev. 
          Tag              B.-S. Rad. Rad. Pts. Rad. Cut. Ang. Pts.
          ---              ---------- --------- --------- ---------
          O                   0.60       70           6.0       590
          H                   0.35       60           8.0       590
          Grid pruning is: on 
          Number of quadrature shells:   190
          Spatial weights used:  Erf1

          Convergence Information
          -----------------------
          Convergence aids based upon iterative change in 
          total energy or number of iterations. 
          Levelshifting, if invoked, occurs when the 
          HOMO/LUMO gap drops below (HL_TOL):  1.00D-02
          DIIS, if invoked, will attempt to extrapolate 
          using up to (NFOCK): 10 stored Fock matrices.

                    Damping( 0%)  Levelshifting(0.5)       DIIS
                  --------------- ------------------- ---------------
          dE  on:    start            ASAP                start   
          dE off:    2 iters         30 iters            30 iters 


      Screening Tolerance Information
      -------------------------------
          Density screening/tol_rho:  1.00D-11
          AO Gaussian exp screening on grid/accAOfunc:  16
          CD Gaussian exp screening on grid/accCDfunc:  20
          XC Gaussian exp screening on grid/accXCfunc:  20
          Schwarz screening/accCoul:  1.00D-12


      Superposition of Atomic Density Guess
      -------------------------------------

 Sum of atomic energies:         -74.71095592

      Non-variational initial energy
      ------------------------------

 Total energy =     -74.589235
 1-e energy   =    -121.161375
 2-e energy   =      37.731120
 HOMO         =      -0.248716
 LUMO         =       0.472077

   Time after variat. SCF:      0.1
   Time prior to 1st pass:      0.1

 #quartets = 1.200D+02 #integrals = 2.560D+02 #direct =  0.0% #cached =100.0%


 Integral file          = ./h2o_freq.aoints.0
 Record size in doubles =    65536    No. of integs per rec  =    43688
 Max. records in memory =        2    Max. records in file   = ********
 No. of bits per label  =        8    No. of bits per value  =       64


 Grid_pts file          = ./h2o_freq.gridpts.0
 Record size in doubles =  12289        No. of grid_pts per rec  =   3070
 Max. records in memory =     42        Max. recs in file   = *********

 Grid integrated density:      10.000000404447
 Requested integration accuracy:   0.10E-13

           Memory utilization after 1st SCF pass: 
           Heap Space remaining (MW):       12.46            12459140
          Stack Space remaining (MW):       13.11            13107012

   convergence    iter        energy       DeltaE   RMS-Dens  Diis-err    time
 ---------------- ----- ----------------- --------- --------- ---------  ------
 d= 0,ls=0.0,diis     1    -75.2665595519 -8.41D+01  1.48D-01  2.90D-01     0.2
 Grid integrated density:      10.000000338513
 Requested integration accuracy:   0.10E-13
 d= 0,ls=0.0,diis     2    -75.2821040273 -1.55D-02  6.64D-02  2.16D-01     0.3
 Grid integrated density:      10.000000336572
 Requested integration accuracy:   0.10E-13
 d= 0,ls=0.0,diis     3    -75.3186554647 -3.66D-02  1.18D-03  1.00D-04     0.3
 Grid integrated density:      10.000000336335
 Requested integration accuracy:   0.10E-13
 d= 0,ls=0.0,diis     4    -75.3186714605 -1.60D-05  6.49D-05  1.09D-07     0.4
 Grid integrated density:      10.000000336332
 Requested integration accuracy:   0.10E-13
 d= 0,ls=0.0,diis     5    -75.3186714855 -2.50D-08  3.26D-06  1.11D-10     0.4


         Total DFT energy =      -75.318671485479
      One electron energy =     -121.655735505189
           Coulomb energy =       46.911737722001
    Exchange-Corr. energy =       -9.415694507504
 Nuclear repulsion energy =        8.841020805213

 Numeric. integr. density =       10.000000336332

     Total iterative time =      0.3s



                       DFT Final Molecular Orbital Analysis
                       ------------------------------------

 Vector    1  Occ=2.000000D+00  E=-1.885405D+01
              MO Center= -7.5D-14,  9.4D-14, -1.4D-01, r^2= 1.5D-02
   Bfn.  Coefficient  Atom+Function         Bfn.  Coefficient  Atom+Function  
  ----- ------------  ---------------      ----- ------------  ---------------
     1      0.993527  1 O  s                  2      0.028836  1 O  s          

 Vector    2  Occ=2.000000D+00  E=-9.303800D-01
              MO Center=  5.4D-11,  4.4D-12,  1.2D-01, r^2= 5.4D-01
   Bfn.  Coefficient  Atom+Function         Bfn.  Coefficient  Atom+Function  
  ----- ------------  ---------------      ----- ------------  ---------------
     2      0.808225  1 O  s                  1     -0.227382  1 O  s          
     5      0.190150  1 O  pz                 6      0.169422  2 H  s          
     7      0.169422  3 H  s          

 Vector    3  Occ=2.000000D+00  E=-3.992500D-01
              MO Center= -3.7D-11,  1.1D-22,  1.6D-01, r^2= 8.2D-01
   Bfn.  Coefficient  Atom+Function         Bfn.  Coefficient  Atom+Function  
  ----- ------------  ---------------      ----- ------------  ---------------
     3      0.633552  1 O  px                 6      0.453084  2 H  s          
     7     -0.453084  3 H  s          

 Vector    4  Occ=2.000000D+00  E=-2.717241D-01
              MO Center=  1.4D-11,  3.7D-12, -1.7D-01, r^2= 6.8D-01
   Bfn.  Coefficient  Atom+Function         Bfn.  Coefficient  Atom+Function  
  ----- ------------  ---------------      ----- ------------  ---------------
     5     -0.697792  1 O  pz                 2      0.634537  1 O  s          
     6     -0.307774  2 H  s                  7     -0.307774  3 H  s          
     1     -0.129608  1 O  s          

 Vector    5  Occ=2.000000D+00  E=-1.499478D-01
              MO Center= -2.6D-23, -9.0D-12, -1.4D-01, r^2= 4.2D-01
   Bfn.  Coefficient  Atom+Function         Bfn.  Coefficient  Atom+Function  
  ----- ------------  ---------------      ----- ------------  ---------------
     4      1.000000  1 O  py         

 Vector    6  Occ=0.000000D+00  E= 3.305010D-01
              MO Center=  4.8D-10,  7.4D-13,  4.1D-01, r^2= 1.0D+00
   Bfn.  Coefficient  Atom+Function         Bfn.  Coefficient  Atom+Function  
  ----- ------------  ---------------      ----- ------------  ---------------
     5      0.818646  1 O  pz                 2      0.760349  1 O  s          
     6     -0.743057  2 H  s                  7     -0.743057  3 H  s          
     1     -0.116796  1 O  s          

 Vector    7  Occ=0.000000D+00  E= 4.019089D-01
              MO Center= -5.1D-10,  7.2D-23,  2.9D-01, r^2= 1.0D+00
   Bfn.  Coefficient  Atom+Function         Bfn.  Coefficient  Atom+Function  
  ----- ------------  ---------------      ----- ------------  ---------------
     3      0.922419  1 O  px                 6     -0.822469  2 H  s          
     7      0.822469  3 H  s          


 center of mass
 --------------
 x =   0.00000000 y =   0.00000000 z =  -0.11770266

 moments of inertia (a.u.)
 ------------------
           3.196225286295           0.000000000000           0.000000000000
           0.000000000000           6.795233176450           0.000000000000
           0.000000000000           0.000000000000           3.599007890155

     Multipole analysis of the density
     ---------------------------------

     L   x y z        total         alpha         beta         nuclear
     -   - - -        -----         -----         ----         -------
     0   0 0 0     -0.000000     -5.000000     -5.000000     10.000000

     1   1 0 0     -0.000000     -0.000000     -0.000000      0.000000
     1   0 1 0      0.000000      0.000000      0.000000      0.000000
     1   0 0 1      0.658686      0.329343      0.329343      0.000000

     2   2 0 0     -3.569990     -3.570527     -3.570527      3.571064
     2   1 1 0     -0.000000     -0.000000     -0.000000      0.000000
     2   1 0 1     -0.000000     -0.000000     -0.000000      0.000000
     2   0 2 0     -4.568011     -2.284006     -2.284006      0.000000
     2   0 1 1      0.000000      0.000000      0.000000      0.000000
     2   0 0 2     -3.849515     -3.353183     -3.353183      2.856851


 Parallel integral file used       1 records with       0 large values


 HESSIAN: the one electron contributions are done in       0.0s


 HESSIAN: 2-el 1st deriv. term done in                     0.0s


 HESSIAN: 2-el 2nd deriv. term done in                     0.0s

  stpr_wrt_fd_from_sq: overwrite of existing file:./h2o_freq.hess
 stpr_wrt_fd_dipole: overwrite of existing file./h2o_freq.fd_ddipole

 HESSIAN: the two electron contributions are done in       0.3s

                                NWChem CPHF Module
                                ------------------


  scftype          =     RHF 
  nclosed          =        5
  nopen            =        0
  variables        =       10
  # of vectors     =        9
  tolerance        = 0.10D-03
  level shift      = 0.00D+00
  max iterations   =       50
  max subspace     =       90


 #quartets = 1.200D+02 #integrals = 2.560D+02 #direct =  0.0% #cached =100.0%


 Integral file          = ./h2o_freq.aoints.0
 Record size in doubles =    65536    No. of integs per rec  =    43688
 Max. records in memory =        2    Max. records in file   = ********
 No. of bits per label  =        8    No. of bits per value  =       64

 Grid integrated density:      10.000000336332
 Requested integration accuracy:   0.10E-13
 SCF residual:    2.8029182990206091E-007


Iterative solution of linear equations
  No. of variables       10
  No. of equations        9
  Maximum subspace       90
        Iterations       50
       Convergence  1.0D-04
        Start time      1.0


   iter   nsub   residual    time
   ----  ------  --------  ---------
     1      9    3.95D-01       1.1
     2     18    4.40D-03       1.3
     3     27    4.51D-11       1.4

 Parallel integral file used       1 records with       0 large values

 HESSIAN: the CPHF contributions are done
  stpr_wrt_fd_from_sq: overwrite of existing file:./h2o_freq.hess
 stpr_wrt_fd_dipole: overwrite of existing file./h2o_freq.fd_ddipole

 Derivative Dipole

  
  
 X vector of derivative dipole (au) [debye/angstrom]
 d_dipole_x/<atom=   1,x> =     0.0095     [    0.0457]
 d_dipole_x/<atom=   1,y> =     0.0000     [    0.0000]
 d_dipole_x/<atom=   1,z> =    -0.0000     [   -0.0000]
 d_dipole_x/<atom=   2,x> =    -0.0048     [   -0.0228]
 d_dipole_x/<atom=   2,y> =    -0.0000     [   -0.0000]
 d_dipole_x/<atom=   2,z> =    -0.2512     [   -1.2067]
 d_dipole_x/<atom=   3,x> =    -0.0048     [   -0.0228]
 d_dipole_x/<atom=   3,y> =     0.0000     [    0.0000]
 d_dipole_x/<atom=   3,z> =     0.2512     [    1.2067]
  
 Y vector of derivative dipole (au) [debye/angstrom]
 d_dipole_y/<atom=   1,x> =     0.0000     [    0.0000]
 d_dipole_y/<atom=   1,y> =    -0.4929     [   -2.3677]
 d_dipole_y/<atom=   1,z> =    -0.0000     [   -0.0000]
 d_dipole_y/<atom=   2,x> =     0.0000     [    0.0000]
 d_dipole_y/<atom=   2,y> =     0.2465     [    1.1838]
 d_dipole_y/<atom=   2,z> =     0.0000     [    0.0000]
 d_dipole_y/<atom=   3,x> =    -0.0000     [   -0.0000]
 d_dipole_y/<atom=   3,y> =     0.2465     [    1.1838]
 d_dipole_y/<atom=   3,z> =     0.0000     [    0.0000]
  
 Z vector of derivative dipole (au) [debye/angstrom]
 d_dipole_z/<atom=   1,x> =    -0.0000     [   -0.0000]
 d_dipole_z/<atom=   1,y> =     0.0000     [    0.0000]
 d_dipole_z/<atom=   1,z> =     0.1943     [    0.9330]
 d_dipole_z/<atom=   2,x> =    -0.1724     [   -0.8283]
 d_dipole_z/<atom=   2,y> =    -0.0000     [   -0.0000]
 d_dipole_z/<atom=   2,z> =    -0.0971     [   -0.4665]
 d_dipole_z/<atom=   3,x> =     0.1724     [    0.8283]
 d_dipole_z/<atom=   3,y> =    -0.0000     [   -0.0000]
 d_dipole_z/<atom=   3,z> =    -0.0971     [   -0.4665]
  
  
 HESSIAN: the Hessian is done


  Vibrational analysis via the FX method 

  See chapter 2 in "Molecular Vibrations" by Wilson, Decius and Cross

  Vib: Default input used 

  Nuclear Hessian passed symmetry test 



 ---------------------------- Atom information ----------------------------
     atom    #        X              Y              Z            mass
 --------------------------------------------------------------------------
    O        1  0.0000000D+00  0.0000000D+00 -2.6724761D-01  1.5994910D+01
    H        2  1.3362381D+00  0.0000000D+00  1.0689904D+00  1.0078250D+00
    H        3 -1.3362381D+00  0.0000000D+00  1.0689904D+00  1.0078250D+00
 --------------------------------------------------------------------------




          ----------------------------------------------------
          MASS-WEIGHTED NUCLEAR HESSIAN (Hartree/Bohr/Bohr/Kamu)
          ----------------------------------------------------


               1            2            3            4            5            6            7            8            9
   ----- ----- ----- ----- -----
    1    3.82728D+01
    2    9.05403D-08 -6.50449D-01
    3    3.13573D-07 -2.98136D-08  3.77077D+01
    4   -7.62352D+01  2.41717D-10 -5.06265D+01  3.64031D+02
    5   -1.50956D-09  1.29518D+00  6.20138D-10 -1.17468D-09 -1.66813D+01
    6   -7.75304D+01  8.52196D-10 -7.51093D+01  2.55276D+02 -1.73405D-09  2.89942D+02
    7   -7.62352D+01  2.99703D-10  5.06265D+01 -6.03247D+01  8.82829D-10  5.35900D+01  3.64031D+02
    8   -7.19591D-10  1.29518D+00  2.93235D-10 -5.80685D-10  1.15214D+01  4.26165D-10  2.28119D-09 -1.66813D+01
    9    7.75304D+01 -2.41637D-09 -7.51093D+01 -5.35900D+01  7.76845D-10  9.27866D+00 -2.55276D+02 -2.74252D-09  2.89942D+02



          -------------------------------------------------
          NORMAL MODE EIGENVECTORS IN CARTESIAN COORDINATES
          -------------------------------------------------
                 (Frequencies expressed in cm-1)

                    1           2           3           4           5           6
 
 Frequency       -863.28     -686.98     -391.83       -2.34        2.61        2.95
 
           1    -0.00000    -0.05633    -0.00000    -0.00004    -0.23563     0.00091
           2     0.00000     0.00000     0.08365     0.23563    -0.00004    -0.00001
           3     0.00000     0.00000     0.00000     0.00001     0.00091     0.23563
           4     0.00000     0.44697    -0.00000    -0.00004    -0.23563     0.00091
           5    -0.70436    -0.00000    -0.66377     0.23564    -0.00004    -0.00001
           6    -0.00000    -0.52073     0.00000     0.00001     0.00091     0.23563
           7     0.00000     0.44697    -0.00000    -0.00004    -0.23563     0.00091
           8     0.70436    -0.00000    -0.66377     0.23564    -0.00004    -0.00001
           9     0.00000     0.52073     0.00000     0.00001     0.00091     0.23563

                    7           8           9
 
 Frequency       2070.32     3978.74     4114.00
 
           1     0.00000     0.00000    -0.06184
           2    -0.00000     0.00000    -0.00000
           3     0.06480    -0.05290    -0.00000
           4     0.44544     0.54562     0.49073
           5    -0.00000    -0.00000    -0.00000
           6    -0.51418     0.41978     0.47430
           7    -0.44544    -0.54562     0.49073
           8    -0.00000    -0.00000     0.00000
           9    -0.51418     0.41978    -0.47430



 ----------------------------------------------------------------------------
 Normal Eigenvalue ||         Derivative Dipole Moments (debye/angs)
  Mode   [cm**-1]  ||      [d/dqX]             [d/dqY]           [d/dqZ]
 ------ ---------- || ------------------ ------------------ -----------------
    1     -863.276 ||       0.000              -0.000            -0.000
    2     -686.976 ||       1.234              -0.000             0.000
    3     -391.828 ||      -0.000              -1.770             0.000
    4       -2.344 ||      -0.000               0.000            -0.000
    5        2.609 ||       0.000               0.000            -0.000
    6        2.945 ||      -0.000               0.000            -0.000
    7     2070.321 ||       0.000              -0.000             0.198
    8     3978.743 ||       0.000              -0.000            -1.345
    9     4114.002 ||      -1.170               0.000            -0.000
 ----------------------------------------------------------------------------



  
  
 ----------------------------------------------------------------------------
 Normal Eigenvalue ||                 Infra Red Intensities
  Mode   [cm**-1]  || [atomic units] [(debye/angs)**2] [(KM/mol)] [arbitrary]
 ------ ---------- || -------------- ----------------- ---------- -----------
    1     -863.276 ||    0.000000           0.000         0.000       0.000
    2     -686.976 ||    0.065975           1.522        64.316      17.406
    3     -391.828 ||    0.135744           3.132       132.330      35.813
    4       -2.344 ||    0.000000           0.000         0.000       0.000
    5        2.609 ||    0.000000           0.000         0.000       0.000
    6        2.945 ||    0.000000           0.000         0.000       0.000
    7     2070.321 ||    0.001694           0.039         1.651       0.447
    8     3978.743 ||    0.078393           1.809        76.422      20.682
    9     4114.002 ||    0.059325           1.369        57.833      15.652
 ----------------------------------------------------------------------------





        Vibrational analysis via the FX method 
  --- with translations and rotations projected out ---
  --- via the Eckart algorithm                      ---
 Projected Nuclear Hessian trans-rot subspace norm:8.4741D-33
                         (should be close to zero!) 

          --------------------------------------------------------
          MASS-WEIGHTED PROJECTED HESSIAN (Hartree/Bohr/Bohr/Kamu)
          --------------------------------------------------------


               1            2            3            4            5            6            7            8            9
   ----- ----- ----- ----- -----
    1    3.83350D+01
    2   -1.93932D-23  0.00000D+00
    3    1.05863D-07  6.46441D-24  3.77075D+01
    4   -7.63595D+01  3.00786D-23 -5.06265D+01  3.64279D+02
    5   -3.98366D-23  0.00000D+00  1.74537D-23  7.93506D-23  0.00000D+00
    6   -7.63595D+01  1.29771D-23 -7.51097D+01  2.52944D+02  4.44845D-23  3.01712D+02
    7   -7.63595D+01  2.64068D-23  5.06265D+01 -6.00770D+01  7.96512D-23  5.12577D+01  3.64279D+02
    8   -3.99875D-23  0.00000D+00  1.75543D-23  7.96512D-23  0.00000D+00  4.46848D-23  7.97514D-23  0.00000D+00
    9    7.63595D+01 -3.50079D-23 -7.51097D+01 -5.12577D+01 -1.14417D-22 -2.48966D+00 -2.52944D+02 -1.15018D-22  3.01712D+02

 center of mass
 --------------
 x =   0.00000000 y =   0.00000000 z =  -0.11770266

 moments of inertia (a.u.)
 ------------------
           3.196225286295           0.000000000000           0.000000000000
           0.000000000000           6.795233176450           0.000000000000
           0.000000000000           0.000000000000           3.599007890155

 Rotational Constants
 --------------------
 A=  18.834772 cm-1  ( 27.098430 K)
 B=  16.726881 cm-1  ( 24.065712 K)
 C=   8.859177 cm-1  ( 12.746095 K)


 Temperature                      =   298.15K
 frequency scaling parameter      =   1.0000

 Zero-Point correction to Energy  =   14.550 kcal/mol  (  0.023188 au)
 Thermal correction to Energy     =   16.327 kcal/mol  (  0.026019 au)
 Thermal correction to Enthalpy   =   16.920 kcal/mol  (  0.026963 au)

 Total Entropy                    =   45.346 cal/mol-K
   - Translational                =   34.593 cal/mol-K (mol. weight =  18.0106)
   - Rotational                   =   10.752 cal/mol-K (symmetry #  =        2)
   - Vibrational                  =    0.001 cal/mol-K

 Cv (constant volume heat capacity) =    5.968 cal/mol-K
   - Translational                  =    2.979 cal/mol-K
   - Rotational                     =    2.979 cal/mol-K
   - Vibrational                    =    0.009 cal/mol-K



          -------------------------------------------------
          NORMAL MODE EIGENVECTORS IN CARTESIAN COORDINATES
          -------------------------------------------------
             (Projected Frequencies expressed in cm-1)

                    1           2           3           4           5           6
 
 P.Frequency        0.00        0.00        0.00        0.00        0.00        0.00
 
           1     0.00000     0.00000     0.00000    -0.05390     0.00694    -0.23635
           2     0.25004     0.00000     0.00000     0.00000     0.00000     0.00000
           3     0.00000     0.00000     0.00000     0.03007     0.23371     0.00001
           4     0.00000     0.00000     0.00000     0.45447    -0.05847    -0.22979
           5     0.00000     0.99611     0.00000     0.00000     0.00000     0.00000
           6     0.00000     0.00000     0.00000    -0.47830     0.29912    -0.00655
           7     0.00000     0.00000     0.00000     0.45447    -0.05847    -0.22979
           8     0.00000     0.00000     0.99611     0.00000     0.00000     0.00000
           9     0.00000     0.00000     0.00000     0.53844     0.16830     0.00656

                    7           8           9
 
 P.Frequency     2070.33     3978.75     4133.98
 
           1    -0.00000     0.00000    -0.06088
           2     0.00000     0.00000     0.00000
           3     0.06480    -0.05290    -0.00000
           4     0.44544     0.54562     0.48307
           5     0.00000     0.00000     0.00000
           6    -0.51418     0.41978     0.48307
           7    -0.44544    -0.54562     0.48307
           8     0.00000     0.00000     0.00000
           9    -0.51418     0.41978    -0.48307



 ----------------------------------------------------------------------------
 Normal Eigenvalue ||    Projected Derivative Dipole Moments (debye/angs)
  Mode   [cm**-1]  ||      [d/dqX]             [d/dqY]           [d/dqZ]
 ------ ---------- || ------------------ ------------------ -----------------
    1        0.000 ||       0.000              -0.592             0.000
    2        0.000 ||      -0.000               1.179            -0.000
    3        0.000 ||       0.000               1.179            -0.000
    4        0.000 ||       1.204              -0.000            -0.000
    5        0.000 ||      -0.155              -0.000            -0.000
    6        0.000 ||       0.016              -0.000             0.000
    7     2070.327 ||       0.000              -0.000             0.198
    8     3978.745 ||       0.000               0.000            -1.345
    9     4133.981 ||      -1.191              -0.000            -0.000
 ----------------------------------------------------------------------------



  
  
 ----------------------------------------------------------------------------
 Normal Eigenvalue ||           Projected Infra Red Intensities
  Mode   [cm**-1]  || [atomic units] [(debye/angs)**2] [(KM/mol)] [arbitrary]
 ------ ---------- || -------------- ----------------- ---------- -----------
    1        0.000 ||    0.015192           0.350        14.810       4.008
    2        0.000 ||    0.060276           1.391        58.760      15.903
    3        0.000 ||    0.060276           1.391        58.760      15.903
    4        0.000 ||    0.062799           1.449        61.219      16.568
    5        0.000 ||    0.001040           0.024         1.014       0.274
    6        0.000 ||    0.000010           0.000         0.010       0.003
    7     2070.327 ||    0.001694           0.039         1.651       0.447
    8     3978.745 ||    0.078393           1.809        76.422      20.682
    9     4133.981 ||    0.061451           1.418        59.906      16.213
 ----------------------------------------------------------------------------



 vib:animation  F

 Task  times  cpu:        1.3s     wall:        1.4s
 Summary of allocated global arrays
-----------------------------------
  No active global arrays



                         GA Statistics for process    0
                         ------------------------------

       create   destroy   get      put      acc     scatter   gather  read&inc
calls:  449      449     2.86e+04 2689     2.45e+04  155        0      445     
number of processes/call 1.00e+00 1.00e+00 1.00e+00 0.00e+00 0.00e+00
bytes total:             1.66e+06 2.83e+05 1.42e+06 8.00e+01 0.00e+00 3.56e+03
bytes remote:            0.00e+00 0.00e+00 0.00e+00 0.00e+00 0.00e+00 0.00e+00
Max memory consumed for GA by this process: 39232 bytes
MA_summarize_allocated_blocks: starting scan ...
MA_summarize_allocated_blocks: scan completed: 0 heap blocks, 0 stack blocks
MA usage statistics:

	allocation statistics:
					      heap	     stack
					      ----	     -----
	current number of blocks	         0	         0
	maximum number of blocks	        26	        52
	current total bytes		         0	         0
	maximum total bytes		   5184472	  63955304
	maximum total K-bytes		      5185	     63956
	maximum total M-bytes		         6	        64


                                NWChem Input Module
                                -------------------





                                     CITATION
                                     --------
                Please cite the following reference when publishing
                           results obtained with NWChem:

                 M. Valiev, E.J. Bylaska, N. Govind, K. Kowalski,
              T.P. Straatsma, H.J.J. van Dam, D. Wang, J. Nieplocha,
                        E. Apra, T.L. Windus, W.A. de Jong
                 "NWChem: a comprehensive and scalable open-source
                  solution for large scale molecular simulations"
                      Comput. Phys. Commun. 181, 1477 (2010)
                           doi:10.1016/j.cpc.2010.04.018

                                      AUTHORS
                                      -------
          E. Apra, E. J. Bylaska, W. A. de Jong, N. Govind, K. Kowalski,
       T. P. Straatsma, M. Valiev, H. J. J. van Dam, D. Wang, T. L. Windus,
        J. Hammond, J. Autschbach, K. Bhaskaran-Nair, J. Brabec, K. Lopata,
    S. A. Fischer, S. Krishnamoorthy, M. Jacquelin, W. Ma, M. Klemm, O. Villa,
      Y. Chen, V. Anisimov, F. Aquino, S. Hirata, M. T. Hackler, V. Konjkov,
            D. Mejia-Rodriguez, T. Risthaus, M. Malagoli, A. Marenich,
   A. Otero-de-la-Roza, J. Mullin, P. Nichols, R. Peverati, J. Pittner, Y. Zhao,
        P.-D. Fan, A. Fonari, M. J. Williamson, R. J. Harrison, J. R. Rehr,
      M. Dupuis, D. Silverstein, D. M. A. Smith, J. Nieplocha, V. Tipparaju,
    M. Krishnan, B. E. Van Kuiken, A. Vazquez-Mayagoitia, L. Jensen, M. Swart,
      Q. Wu, T. Van Voorhis, A. A. Auer, M. Nooijen, L. D. Crosby, E. Brown,
      G. Cisneros, G. I. Fann, H. Fruchtl, J. Garza, K. Hirao, R. A. Kendall,
      J. A. Nichols, K. Tsemekhman, K. Wolinski, J. Anchell, D. E. Bernholdt,
      P. Borowski, T. Clark, D. Clerc, H. Dachsel, M. J. O. Deegan, K. Dyall,
    D. Elwood, E. Glendening, M. Gutowski, A. C. Hess, J. Jaffe, B. G. Johnson,
     J. Ju, R. Kobayashi, R. Kutteh, Z. Lin, R. Littlefield, X. Long, B. Meng,
      T. Nakajima, S. Niu, L. Pollack, M. Rosing, K. Glaesemann, G. Sandrone,
      M. Stave, H. Taylor, G. Thomas, J. H. van Lenthe, A. T. Wong, Z. Zhang.

 Total times  cpu:        1.3s     wall:        1.5s
