total 12
drwxrwxr-x 2 henon henon 4096 14 avril 12:40 .
drwxrwxr-x 3 henon henon 4096 14 avril 12:40 ..
-rw-r--r-- 1 henon henon  263 14 avril 12:40 relax1.inp
-rw-rw-r-- 1 henon henon    0 14 avril 12:40 relax1.out
 Entering Gaussian System, Link 0=g09
 Initial command:
 /home/projets/algogen/g09.D01/g09/l1.exe "/scratch_l/henon/relax1_15763/Gau-15773.inp" -scrdir="/scratch_l/henon/relax1_15763/"
 Entering Link 1 = /home/projets/algogen/g09.D01/g09/l1.exe PID=     15774.
  
 Copyright (c) 1988,1990,1992,1993,1995,1998,2003,2009,2013,
            Gaussian, Inc.  All Rights Reserved.
  
 This is part of the Gaussian(R) 09 program.  It is based on
 the Gaussian(R) 03 system (copyright 2003, Gaussian, Inc.),
 the Gaussian(R) 98 system (copyright 1998, Gaussian, Inc.),
 the Gaussian(R) 94 system (copyright 1995, Gaussian, Inc.),
 the Gaussian 92(TM) system (copyright 1992, Gaussian, Inc.),
 the Gaussian 90(TM) system (copyright 1990, Gaussian, Inc.),
 the Gaussian 88(TM) system (copyright 1988, Gaussian, Inc.),
 the Gaussian 86(TM) system (copyright 1986, Carnegie Mellon
 University), and the Gaussian 82(TM) system (copyright 1983,
 Carnegie Mellon University). Gaussian is a federally registered
 trademark of Gaussian, Inc.
  
 This software contains proprietary and confidential information,
 including trade secrets, belonging to Gaussian, Inc.
  
 This software is provided under written license and may be
 used, copied, transmitted, or stored only in accord with that
 written license.
  
 The following legend is applicable only to US Government
 contracts under FAR:
  
                    RESTRICTED RIGHTS LEGEND
  
 Use, reproduction and disclosure by the US Government is
 subject to restrictions as set forth in subparagraphs (a)
 and (c) of the Commercial Computer Software - Restricted
 Rights clause in FAR 52.227-19.
  
 Gaussian, Inc.
 340 Quinnipiac St., Bldg. 40, Wallingford CT 06492
  
  
 ---------------------------------------------------------------
 Warning -- This program may not be used in any manner that
 competes with the business of Gaussian, Inc. or will provide
 assistance to any competitor of Gaussian, Inc.  The licensee
 of this program is prohibited from giving any competitor of
 Gaussian, Inc. access to this program.  By using this program,
 the user acknowledges that Gaussian, Inc. is engaged in the
 business of creating and licensing software in the field of
 computational chemistry and represents and warrants to the
 licensee that it is not a competitor of Gaussian, Inc. and that
 it will not use this program in any manner prohibited above.
 ---------------------------------------------------------------
  

 Cite this work as:
 Gaussian 09, Revision D.01,
 M. J. Frisch, G. W. Trucks, H. B. Schlegel, G. E. Scuseria, 
 M. A. Robb, J. R. Cheeseman, G. Scalmani, V. Barone, B. Mennucci, 
 G. A. Petersson, H. Nakatsuji, M. Caricato, X. Li, H. P. Hratchian, 
 A. F. Izmaylov, J. Bloino, G. Zheng, J. L. Sonnenberg, M. Hada, 
 M. Ehara, K. Toyota, R. Fukuda, J. Hasegawa, M. Ishida, T. Nakajima, 
 Y. Honda, O. Kitao, H. Nakai, T. Vreven, J. A. Montgomery, Jr., 
 J. E. Peralta, F. Ogliaro, M. Bearpark, J. J. Heyd, E. Brothers, 
 K. N. Kudin, V. N. Staroverov, T. Keith, R. Kobayashi, J. Normand, 
 K. Raghavachari, A. Rendell, J. C. Burant, S. S. Iyengar, J. Tomasi, 
 M. Cossi, N. Rega, J. M. Millam, M. Klene, J. E. Knox, J. B. Cross, 
 V. Bakken, C. Adamo, J. Jaramillo, R. Gomperts, R. E. Stratmann, 
 O. Yazyev, A. J. Austin, R. Cammi, C. Pomelli, J. W. Ochterski, 
 R. L. Martin, K. Morokuma, V. G. Zakrzewski, G. A. Voth, 
 P. Salvador, J. J. Dannenberg, S. Dapprich, A. D. Daniels, 
 O. Farkas, J. B. Foresman, J. V. Ortiz, J. Cioslowski, 
 and D. J. Fox, Gaussian, Inc., Wallingford CT, 2013.
 
 ******************************************
 Gaussian 09:  ES64L-G09RevD.01 24-Apr-2013
                14-Apr-2016 
 ******************************************
 %NPROC=1
 Will use up to    1 processors via shared memory.
 %MEM=800MB
 ----------------------------------------------------------------------
 #P B3LYP 6-311G** OPT=(TS, maxcyc=100, noeigentest, calcall) # POP=ful
 l GFINPUT IOP(6/7=3) FREQ
 ----------------------------------------------------------------------
 1/5=1,6=100,10=4,11=1,14=-1,18=20,26=3,38=1/1,3;
 2/9=110,12=2,17=6,18=5,40=1/2;
 3/5=4,6=6,7=101,11=2,16=1,24=10,25=1,30=1,71=2,74=-5,140=1/1,2,3;
 4//1;
 5/5=2,38=5/2;
 8/6=4,10=90,11=11/1;
 11/6=1,8=1,9=11,15=111,16=1/1,2,10;
 10/6=1/2;
 6/7=3,18=1,28=1/1;
 7/10=1,25=1/1,2,3,16;
 1/5=1,6=100,10=4,11=1,14=-1,18=20,26=3/3(3);
 2/9=110/2;
 7/8=1,9=1,25=1,44=-1/16;
 99//99;
 2/9=110/2;
 3/5=4,6=6,7=101,11=2,16=1,25=1,30=1,71=2,74=-5,140=1/1,2,3;
 4/5=5,16=3,69=1/1;
 5/5=2,38=5/2;
 8/6=4,10=90,11=11/1;
 11/6=1,8=1,9=11,15=111,16=1/1,2,10;
 10/6=1/2;
 7/10=1,25=1/1,2,3,16;
 1/5=1,6=100,10=4,11=1,14=-1,18=20,26=3/3(-8);
 2/9=110/2;
 6/7=3,18=1,19=2,28=1/1;
 7/8=1,9=1,25=1,44=-1/16;
 99//99;
 Leave Link    1 at Thu Apr 14 12:40:06 2016, MaxMem=   104857600 cpu:         0.0
 (Enter /home/projets/algogen/g09.D01/g09/l101.exe)
 --------
 essai ts
 --------
 Symbolic Z-matrix:
 Charge =  0 Multiplicity = 1
 c
 n                    1    nc2
 h                    1    hc3      2    hcn3
       Variables:
  nc2                   1.1834                   
  hc3                   1.1847                   
  hcn3                 73.                       
 
 NAtoms=      3 NQM=        3 NQMF=       0 NMMI=      0 NMMIF=      0
                NMic=       0 NMicF=      0.
                    Isotopes and Nuclear Properties:
 (Nuclear quadrupole moments (NQMom) in fm**2, nuclear magnetic moments (NMagM)
  in nuclear magnetons)

  Atom         1           2           3
 IAtWgt=          12          14           1
 AtmWgt=  12.0000000  14.0030740   1.0078250
 NucSpn=           0           2           1
 AtZEff=   0.0000000   0.0000000   0.0000000
 NQMom=    0.0000000   2.0440000   0.0000000
 NMagM=    0.0000000   0.4037610   2.7928460
 AtZNuc=   6.0000000   7.0000000   1.0000000
 Leave Link  101 at Thu Apr 14 12:40:06 2016, MaxMem=   104857600 cpu:         0.1
 (Enter /home/projets/algogen/g09.D01/g09/l103.exe)

 GradGradGradGradGradGradGradGradGradGradGradGradGradGradGradGradGradGrad
 Berny optimization.
 Initialization pass.
                           ----------------------------
                           !    Initial Parameters    !
                           ! (Angstroms and Degrees)  !
 --------------------------                            --------------------------
 ! Name  Definition              Value          Derivative Info.                !
 --------------------------------------------------------------------------------
 ! R1    R(1,2)                  1.1834         calculate D2E/DX2 analytically  !
 ! R2    R(1,3)                  1.1847         calculate D2E/DX2 analytically  !
 ! A1    A(2,1,3)               73.0            calculate D2E/DX2 analytically  !
 --------------------------------------------------------------------------------
 Trust Radius=3.00D-01 FncErr=1.00D-07 GrdErr=1.00D-06
 Number of steps in this run=    100 maximum allowed number of steps=    100.
 Search for a saddle point of order  1.
 GradGradGradGradGradGradGradGradGradGradGradGradGradGradGradGradGradGrad

 Leave Link  103 at Thu Apr 14 12:40:06 2016, MaxMem=   104857600 cpu:         0.0
 (Enter /home/projets/algogen/g09.D01/g09/l202.exe)
                          Input orientation:                          
 ---------------------------------------------------------------------
 Center     Atomic      Atomic             Coordinates (Angstroms)
 Number     Number       Type             X           Y           Z
 ---------------------------------------------------------------------
      1          6           0        0.000000    0.000000    0.000000
      2          7           0        0.000000    0.000000    1.183400
      3          1           0        1.132934    0.000000    0.346373
 ---------------------------------------------------------------------
                    Distance matrix (angstroms):
                    1          2          3
     1  C    0.000000
     2  N    1.183400   0.000000
     3  H    1.184700   1.408600   0.000000
 Stoichiometry    CHN
 Framework group  CS[SG(CHN)]
 Deg. of freedom     3
 Full point group                 CS      NOp   2
 Largest Abelian subgroup         CS      NOp   2
 Largest concise Abelian subgroup C1      NOp   1
                         Standard orientation:                         
 ---------------------------------------------------------------------
 Center     Atomic      Atomic             Coordinates (Angstroms)
 Number     Number       Type             X           Y           Z
 ---------------------------------------------------------------------
      1          6           0        0.080924    0.616441    0.000000
      2          7           0        0.080924   -0.566959    0.000000
      3          1           0       -1.052010    0.270068    0.000000
 ---------------------------------------------------------------------
 Rotational constants (GHZ):    410.0856546     55.2632654     48.7003867
 Leave Link  202 at Thu Apr 14 12:40:06 2016, MaxMem=   104857600 cpu:         0.0
 (Enter /home/projets/algogen/g09.D01/g09/l301.exe)
 Standard basis: 6-311G(d,p) (5D, 7F)
 Ernie: Thresh=  0.10000D-02 Tol=  0.10000D-05 Strict=F.
 AO basis set in the form of general basis input (Overlap normalization):
      1 0
 S   6 1.00       0.000000000000
      0.4563240000D+04  0.1966650249D-02
      0.6820240000D+03  0.1523060193D-01
      0.1549730000D+03  0.7612690966D-01
      0.4445530000D+02  0.2608010331D+00
      0.1302900000D+02  0.6164620782D+00
      0.1827730000D+01  0.2210060280D+00
 SP   3 1.00       0.000000000000
      0.2096420000D+02  0.1146600807D+00  0.4024869267D-01
      0.4803310000D+01  0.9199996477D+00  0.2375939567D+00
      0.1459330000D+01 -0.3030682134D-02  0.8158538515D+00
 SP   1 1.00       0.000000000000
      0.4834560000D+00  0.1000000000D+01  0.1000000000D+01
 SP   1 1.00       0.000000000000
      0.1455850000D+00  0.1000000000D+01  0.1000000000D+01
 D   1 1.00       0.000000000000
      0.6260000000D+00  0.1000000000D+01
 ****
      2 0
 S   6 1.00       0.000000000000
      0.6293480000D+04  0.1969788147D-02
      0.9490440000D+03  0.1496128592D-01
      0.2187760000D+03  0.7350053084D-01
      0.6369160000D+02  0.2489367658D+00
      0.1882820000D+02  0.6024594331D+00
      0.2720230000D+01  0.2562017589D+00
 SP   3 1.00       0.000000000000
      0.3063310000D+02  0.1119060795D+00  0.3831191864D-01
      0.7026140000D+01  0.9216666549D+00  0.2374031155D+00
      0.2112050000D+01 -0.2569191826D-02  0.8175923978D+00
 SP   1 1.00       0.000000000000
      0.6840090000D+00  0.1000000000D+01  0.1000000000D+01
 SP   1 1.00       0.000000000000
      0.2008780000D+00  0.1000000000D+01  0.1000000000D+01
 D   1 1.00       0.000000000000
      0.9130000000D+00  0.1000000000D+01
 ****
      3 0
 S   3 1.00       0.000000000000
      0.3386500000D+02  0.2549381454D-01
      0.5094790000D+01  0.1903731086D+00
      0.1158790000D+01  0.8521614860D+00
 S   1 1.00       0.000000000000
      0.3258400000D+00  0.1000000000D+01
 S   1 1.00       0.000000000000
      0.1027410000D+00  0.1000000000D+01
 P   1 1.00       0.000000000000
      0.7500000000D+00  0.1000000000D+01
 ****

 There are    33 symmetry adapted cartesian basis functions of A'  symmetry.
 There are    11 symmetry adapted cartesian basis functions of A"  symmetry.
 There are    31 symmetry adapted basis functions of A'  symmetry.
 There are    11 symmetry adapted basis functions of A"  symmetry.
    42 basis functions,    72 primitive gaussians,    44 cartesian basis functions
     7 alpha electrons        7 beta electrons
       nuclear repulsion energy        24.0907945344 Hartrees.
 IExCor=  402 DFT=T Ex+Corr=B3LYP ExCW=0 ScaHFX=  0.200000
 ScaDFX=  0.800000  0.720000  1.000000  0.810000 ScalE2=  1.000000  1.000000
 IRadAn=      0 IRanWt=     -1 IRanGd=            0 ICorTp=0 IEmpDi=  4
 NAtoms=    3 NActive=    3 NUniq=    3 SFac= 1.00D+00 NAtFMM=   60 NAOKFM=F Big=F
 Integral buffers will be    131072 words long.
 Raffenetti 2 integral format.
 Two-electron integral symmetry is turned on.
 Leave Link  301 at Thu Apr 14 12:40:06 2016, MaxMem=   104857600 cpu:         0.0
 (Enter /home/projets/algogen/g09.D01/g09/l302.exe)
 NPDir=0 NMtPBC=     1 NCelOv=     1 NCel=       1 NClECP=     1 NCelD=      1
         NCelK=      1 NCelE2=     1 NClLst=     1 CellRange=     0.0.
 One-electron integrals computed using PRISM.
 NBasis=    42 RedAO= T EigKep=  8.64D-03  NBF=    31    11
 NBsUse=    42 1.00D-06 EigRej= -1.00D+00 NBFU=    31    11
 Precomputing XC quadrature grid using
 IXCGrd= 4 IRadAn=           0 IRanWt=          -1 IRanGd=           0 AccXCQ= 0.00D+00.
 Generated NRdTot=       0 NPtTot=           0 NUsed=           0 NTot=          32
 NSgBfM=    44    44    44    44    44 MxSgAt=     3 MxSgA2=     3.
 Leave Link  302 at Thu Apr 14 12:40:06 2016, MaxMem=   104857600 cpu:         0.1
 (Enter /home/projets/algogen/g09.D01/g09/l303.exe)
 DipDrv:  MaxL=1.
 Leave Link  303 at Thu Apr 14 12:40:06 2016, MaxMem=   104857600 cpu:         0.0
 (Enter /home/projets/algogen/g09.D01/g09/l401.exe)
 ExpMin= 1.03D-01 ExpMax= 6.29D+03 ExpMxC= 9.49D+02 IAcc=1 IRadAn=         1 AccDes= 0.00D+00
 Harris functional with IExCor=  402 and IRadAn=       1 diagonalized for initial guess.
 HarFok:  IExCor=  402 AccDes= 0.00D+00 IRadAn=         1 IDoV= 1 UseB2=F ITyADJ=14
 ICtDFT=  3500011 ScaDFX=  1.000000  1.000000  1.000000  1.000000
 FoFCou: FMM=F IPFlag=           0 FMFlag=      100000 FMFlg1=           0
         NFxFlg=           0 DoJE=T BraDBF=F KetDBF=T FulRan=T
         wScrn=  0.000000 ICntrl=     500 IOpCl=  0 I1Cent=   200000004 NGrid=           0
         NMat0=    1 NMatS0=      1 NMatT0=    0 NMatD0=    1 NMtDS0=    0 NMtDT0=    0
 Petite list used in FoFCou.
 Harris En= -93.3717742174075    
 JPrj=0 DoOrth=F DoCkMO=F.
 Initial guess orbital symmetries:
       Occupied  (A') (A') (A') (A') (A') (A") (A')
       Virtual   (A') (A") (A') (A') (A') (A") (A') (A') (A') (A')
                 (A") (A') (A") (A') (A') (A") (A') (A') (A") (A')
                 (A") (A') (A') (A') (A") (A') (A") (A') (A') (A')
                 (A") (A') (A') (A') (A')
 The electronic state of the initial guess is 1-A'.
 Leave Link  401 at Thu Apr 14 12:40:06 2016, MaxMem=   104857600 cpu:         0.1
 (Enter /home/projets/algogen/g09.D01/g09/l502.exe)
 Closed shell SCF:
 Using DIIS extrapolation, IDIIS=  1040.
 Integral symmetry usage will be decided dynamically.
 Keep R1 ints in memory in symmetry-blocked form, NReq=1300126.
 IVT=       24966 IEndB=       24966 NGot=   104857600 MDV=   104613769
 LenX=   104613769 LenY=   104611392
 Requested convergence on RMS density matrix=1.00D-08 within 128 cycles.
 Requested convergence on MAX density matrix=1.00D-06.
 Requested convergence on             energy=1.00D-06.
 No special actions if energy rises.
 FoFCou: FMM=F IPFlag=           0 FMFlag=           0 FMFlg1=           0
         NFxFlg=           0 DoJE=F BraDBF=F KetDBF=F FulRan=T
         wScrn=  0.000000 ICntrl=     600 IOpCl=  0 I1Cent=           0 NGrid=           0
         NMat0=    1 NMatS0=    903 NMatT0=    0 NMatD0=    1 NMtDS0=    0 NMtDT0=    0
 Petite list used in FoFCou.
 Integral accuracy reduced to 1.0D-05 until final iterations.

 Cycle   1  Pass 0  IDiag  1:
 E= -93.3487192254934    
 DIIS: error= 2.67D-02 at cycle   1 NSaved=   1.
 NSaved= 1 IEnMin= 1 EnMin= -93.3487192254934     IErMin= 1 ErrMin= 2.67D-02
 ErrMax= 2.67D-02  0.00D+00 EMaxC= 1.00D-01 BMatC= 3.12D-02 BMatP= 3.12D-02
 IDIUse=3 WtCom= 7.33D-01 WtEn= 2.67D-01
 Coeff-Com:  0.100D+01
 Coeff-En:   0.100D+01
 Coeff:      0.100D+01
 Gap=     0.269 Goal=   None    Shift=    0.000
 GapD=    0.269 DampG=1.000 DampE=0.500 DampFc=0.5000 IDamp=-1.
 Damping current iteration by 5.00D-01
 RMSDP=5.78D-03 MaxDP=8.31D-02              OVMax= 1.07D-01

 Cycle   2  Pass 0  IDiag  1:
 E= -93.3625007712179     Delta-E=       -0.013781545725 Rises=F Damp=T
 DIIS: error= 4.58D-03 at cycle   2 NSaved=   2.
 NSaved= 2 IEnMin= 2 EnMin= -93.3625007712179     IErMin= 2 ErrMin= 4.58D-03
 ErrMax= 4.58D-03  0.00D+00 EMaxC= 1.00D-01 BMatC= 1.61D-03 BMatP= 3.12D-02
 IDIUse=3 WtCom= 9.54D-01 WtEn= 4.58D-02
 Coeff-Com: -0.141D+00 0.114D+01
 Coeff-En:   0.000D+00 0.100D+01
 Coeff:     -0.135D+00 0.113D+01
 Gap=     0.279 Goal=   None    Shift=    0.000
 RMSDP=7.48D-04 MaxDP=6.24D-03 DE=-1.38D-02 OVMax= 5.44D-02

 Cycle   3  Pass 0  IDiag  1:
 E= -93.3750547156019     Delta-E=       -0.012553944384 Rises=F Damp=F
 DIIS: error= 3.03D-03 at cycle   3 NSaved=   3.
 NSaved= 3 IEnMin= 3 EnMin= -93.3750547156019     IErMin= 3 ErrMin= 3.03D-03
 ErrMax= 3.03D-03  0.00D+00 EMaxC= 1.00D-01 BMatC= 2.80D-04 BMatP= 1.61D-03
 IDIUse=3 WtCom= 9.70D-01 WtEn= 3.03D-02
 Coeff-Com: -0.835D-01 0.294D+00 0.789D+00
 Coeff-En:   0.000D+00 0.000D+00 0.100D+01
 Coeff:     -0.809D-01 0.285D+00 0.796D+00
 Gap=     0.279 Goal=   None    Shift=    0.000
 RMSDP=4.00D-04 MaxDP=4.20D-03 DE=-1.26D-02 OVMax= 1.03D-02

 Cycle   4  Pass 0  IDiag  1:
 E= -93.3749936708400     Delta-E=        0.000061044762 Rises=F Damp=F
 DIIS: error= 4.85D-03 at cycle   4 NSaved=   4.
 NSaved= 4 IEnMin= 3 EnMin= -93.3750547156019     IErMin= 3 ErrMin= 3.03D-03
 ErrMax= 4.85D-03  0.00D+00 EMaxC= 1.00D-01 BMatC= 3.66D-04 BMatP= 2.80D-04
 IDIUse=3 WtCom= 1.26D-01 WtEn= 8.74D-01
 Coeff-Com: -0.479D-01 0.117D+00 0.578D+00 0.353D+00
 Coeff-En:   0.000D+00 0.000D+00 0.548D+00 0.452D+00
 Coeff:     -0.602D-02 0.147D-01 0.551D+00 0.440D+00
 Gap=     0.275 Goal=   None    Shift=    0.000
 RMSDP=3.45D-04 MaxDP=4.65D-03 DE= 6.10D-05 OVMax= 8.79D-03

 Cycle   5  Pass 0  IDiag  1:
 E= -93.3752578328334     Delta-E=       -0.000264161993 Rises=F Damp=F
 DIIS: error= 1.24D-03 at cycle   5 NSaved=   5.
 NSaved= 5 IEnMin= 5 EnMin= -93.3752578328334     IErMin= 5 ErrMin= 1.24D-03
 ErrMax= 1.24D-03  0.00D+00 EMaxC= 1.00D-01 BMatC= 5.63D-05 BMatP= 2.80D-04
 IDIUse=3 WtCom= 9.88D-01 WtEn= 1.24D-02
 Coeff-Com: -0.282D-02 0.272D-02 0.239D+00 0.281D+00 0.480D+00
 Coeff-En:   0.000D+00 0.000D+00 0.000D+00 0.164D+00 0.836D+00
 Coeff:     -0.278D-02 0.268D-02 0.236D+00 0.280D+00 0.485D+00
 Gap=     0.277 Goal=   None    Shift=    0.000
 RMSDP=1.42D-04 MaxDP=1.86D-03 DE=-2.64D-04 OVMax= 2.64D-03

 Cycle   6  Pass 0  IDiag  1:
 E= -93.3753147979155     Delta-E=       -0.000056965082 Rises=F Damp=F
 DIIS: error= 3.98D-05 at cycle   6 NSaved=   6.
 NSaved= 6 IEnMin= 6 EnMin= -93.3753147979155     IErMin= 6 ErrMin= 3.98D-05
 ErrMax= 3.98D-05  0.00D+00 EMaxC= 1.00D-01 BMatC= 5.64D-08 BMatP= 5.63D-05
 IDIUse=1 WtCom= 1.00D+00 WtEn= 0.00D+00
 Coeff-Com:  0.215D-02-0.483D-02-0.124D-02 0.153D-01 0.653D-01 0.923D+00
 Coeff:      0.215D-02-0.483D-02-0.124D-02 0.153D-01 0.653D-01 0.923D+00
 Gap=     0.277 Goal=   None    Shift=    0.000
 RMSDP=5.93D-06 MaxDP=1.05D-04 DE=-5.70D-05 OVMax= 1.04D-04

 Initial convergence to 1.0D-05 achieved.  Increase integral accuracy.
 Cycle   7  Pass 1  IDiag  1:
 E= -93.3753108005148     Delta-E=        0.000003997401 Rises=F Damp=F
 DIIS: error= 4.96D-06 at cycle   1 NSaved=   1.
 NSaved= 1 IEnMin= 1 EnMin= -93.3753108005148     IErMin= 1 ErrMin= 4.96D-06
 ErrMax= 4.96D-06  0.00D+00 EMaxC= 1.00D-01 BMatC= 1.41D-09 BMatP= 1.41D-09
 IDIUse=1 WtCom= 1.00D+00 WtEn= 0.00D+00
 Coeff-Com:  0.100D+01
 Coeff:      0.100D+01
 Gap=     0.277 Goal=   None    Shift=    0.000
 RMSDP=5.93D-06 MaxDP=1.05D-04 DE= 4.00D-06 OVMax= 2.25D-05

 Cycle   8  Pass 1  IDiag  1:
 E= -93.3753108015629     Delta-E=       -0.000000001048 Rises=F Damp=F
 DIIS: error= 3.18D-06 at cycle   2 NSaved=   2.
 NSaved= 2 IEnMin= 2 EnMin= -93.3753108015629     IErMin= 2 ErrMin= 3.18D-06
 ErrMax= 3.18D-06  0.00D+00 EMaxC= 1.00D-01 BMatC= 3.72D-10 BMatP= 1.41D-09
 IDIUse=1 WtCom= 1.00D+00 WtEn= 0.00D+00
 Coeff-Com:  0.296D+00 0.704D+00
 Coeff:      0.296D+00 0.704D+00
 Gap=     0.277 Goal=   None    Shift=    0.000
 RMSDP=4.68D-07 MaxDP=5.60D-06 DE=-1.05D-09 OVMax= 1.07D-05

 Cycle   9  Pass 1  IDiag  1:
 E= -93.3753108014795     Delta-E=        0.000000000083 Rises=F Damp=F
 DIIS: error= 5.57D-06 at cycle   3 NSaved=   3.
 NSaved= 3 IEnMin= 2 EnMin= -93.3753108015629     IErMin= 2 ErrMin= 3.18D-06
 ErrMax= 5.57D-06  0.00D+00 EMaxC= 1.00D-01 BMatC= 4.54D-10 BMatP= 3.72D-10
 IDIUse=1 WtCom= 1.00D+00 WtEn= 0.00D+00
 Coeff-Com:  0.114D+00 0.509D+00 0.377D+00
 Coeff:      0.114D+00 0.509D+00 0.377D+00
 Gap=     0.277 Goal=   None    Shift=    0.000
 RMSDP=2.89D-07 MaxDP=2.74D-06 DE= 8.34D-11 OVMax= 8.90D-06

 Cycle  10  Pass 1  IDiag  1:
 E= -93.3753108018615     Delta-E=       -0.000000000382 Rises=F Damp=F
 DIIS: error= 6.11D-07 at cycle   4 NSaved=   4.
 NSaved= 4 IEnMin= 4 EnMin= -93.3753108018615     IErMin= 4 ErrMin= 6.11D-07
 ErrMax= 6.11D-07  0.00D+00 EMaxC= 1.00D-01 BMatC= 1.15D-11 BMatP= 3.72D-10
 IDIUse=1 WtCom= 1.00D+00 WtEn= 0.00D+00
 Coeff-Com: -0.348D-02 0.645D-01 0.158D+00 0.781D+00
 Coeff:     -0.348D-02 0.645D-01 0.158D+00 0.781D+00
 Gap=     0.277 Goal=   None    Shift=    0.000
 RMSDP=7.96D-08 MaxDP=7.79D-07 DE=-3.82D-10 OVMax= 2.13D-06

 Cycle  11  Pass 1  IDiag  1:
 E= -93.3753108018727     Delta-E=       -0.000000000011 Rises=F Damp=F
 DIIS: error= 1.45D-07 at cycle   5 NSaved=   5.
 NSaved= 5 IEnMin= 5 EnMin= -93.3753108018727     IErMin= 5 ErrMin= 1.45D-07
 ErrMax= 1.45D-07  0.00D+00 EMaxC= 1.00D-01 BMatC= 6.92D-13 BMatP= 1.15D-11
 IDIUse=1 WtCom= 1.00D+00 WtEn= 0.00D+00
 Coeff-Com: -0.883D-02-0.554D-02 0.426D-01 0.337D+00 0.635D+00
 Coeff:     -0.883D-02-0.554D-02 0.426D-01 0.337D+00 0.635D+00
 Gap=     0.277 Goal=   None    Shift=    0.000
 RMSDP=1.75D-08 MaxDP=2.80D-07 DE=-1.12D-11 OVMax= 3.93D-07

 Cycle  12  Pass 1  IDiag  1:
 E= -93.3753108018737     Delta-E=       -0.000000000001 Rises=F Damp=F
 DIIS: error= 1.63D-08 at cycle   6 NSaved=   6.
 NSaved= 6 IEnMin= 6 EnMin= -93.3753108018737     IErMin= 6 ErrMin= 1.63D-08
 ErrMax= 1.63D-08  0.00D+00 EMaxC= 1.00D-01 BMatC= 7.28D-15 BMatP= 6.92D-13
 IDIUse=1 WtCom= 1.00D+00 WtEn= 0.00D+00
 Coeff-Com: -0.269D-03-0.680D-02-0.103D-01-0.325D-01 0.105D-01 0.104D+01
 Coeff:     -0.269D-03-0.680D-02-0.103D-01-0.325D-01 0.105D-01 0.104D+01
 Gap=     0.277 Goal=   None    Shift=    0.000
 RMSDP=3.57D-09 MaxDP=4.78D-08 DE=-9.81D-13 OVMax= 8.43D-08

 SCF Done:  E(RB3LYP) =  -93.3753108019     A.U. after   12 cycles
            NFock= 12  Conv=0.36D-08     -V/T= 2.0033
 KE= 9.307173694112D+01 PE=-2.660004715332D+02 EE= 5.546262925572D+01
 Leave Link  502 at Thu Apr 14 12:40:07 2016, MaxMem=   104857600 cpu:         0.8
 (Enter /home/projets/algogen/g09.D01/g09/l801.exe)
 DoSCS=F DFT=T ScalE2(SS,OS)=  1.000000  1.000000
 Range of M.O.s used for correlation:     1    42
 NBasis=    42 NAE=     7 NBE=     7 NFC=     0 NFV=     0
 NROrb=     42 NOA=     7 NOB=     7 NVA=    35 NVB=    35
 Leave Link  801 at Thu Apr 14 12:40:07 2016, MaxMem=   104857600 cpu:         0.0
 (Enter /home/projets/algogen/g09.D01/g09/l1101.exe)
 Using compressed storage, NAtomX=     3.
 Will process      4 centers per pass.
 Leave Link 1101 at Thu Apr 14 12:40:07 2016, MaxMem=   104857600 cpu:         0.1
 (Enter /home/projets/algogen/g09.D01/g09/l1102.exe)
 Symmetrizing basis deriv contribution to polar:
 IMax=3 JMax=2 DiffMx= 0.00D+00
 Leave Link 1102 at Thu Apr 14 12:40:07 2016, MaxMem=   104857600 cpu:         0.0
 (Enter /home/projets/algogen/g09.D01/g09/l1110.exe)
 Forming Gx(P) for the SCF density, NAtomX=     3.
 Integral derivatives from FoFJK, PRISM(SPDF).
 Do as many integral derivatives as possible in FoFJK.
 G2DrvN: MDV=     104857472.
 G2DrvN: will do     4 centers at a time, making    1 passes.
 Calling FoFCou, ICntrl=  3107 FMM=F I1Cent=   0 AccDes= 0.00D+00.
 FoFJK:  IHMeth= 1 ICntrl=    3107 DoSepK=F KAlg= 0 I1Cent=   0 FoldK=F
 IRaf=         0 NMat=   1 IRICut=       1 DoRegI=T DoRafI=F ISym2E= 1.
 FoFCou: FMM=F IPFlag=           0 FMFlag=      100000 FMFlg1=           0
         NFxFlg=           0 DoJE=F BraDBF=F KetDBF=F FulRan=T
         wScrn=  0.000000 ICntrl=    3107 IOpCl=  0 I1Cent=           0 NGrid=           0
         NMat0=    1 NMatS0=      1 NMatT0=    0 NMatD0=    1 NMtDS0=    0 NMtDT0=    0
 Petite list used in FoFCou.
 End of G2Drv F.D. properties file   721 does not exist.
 End of G2Drv F.D. properties file   722 does not exist.
 End of G2Drv F.D. properties file   788 does not exist.
 Leave Link 1110 at Thu Apr 14 12:40:08 2016, MaxMem=   104857600 cpu:         1.0
 (Enter /home/projets/algogen/g09.D01/g09/l1002.exe)
 Minotr:  Closed shell wavefunction.
          IDoAtm=111
          Direct CPHF calculation.
          Differentiating once with respect to electric field.
                with respect to dipole field.
          Differentiating once with respect to nuclear coordinates.
          Using symmetry in CPHF.
          Requested convergence is 1.0D-08 RMS, and 1.0D-07 maximum.
          Secondary convergence is 1.0D-12 RMS, and 1.0D-12 maximum.
          NewPWx=T KeepS1=F KeepF1=F KeepIn=T MapXYZ=F SortEE=F KeepMc=T.
          MDV=     104857524 using IRadAn=       2.
 Generate precomputed XC quadrature information.
 Keep R1 ints in memory in symmetry-blocked form, NReq=1274720.
 FoFCou: FMM=F IPFlag=           0 FMFlag=           0 FMFlg1=           0
         NFxFlg=           0 DoJE=F BraDBF=F KetDBF=F FulRan=T
         wScrn=  0.000000 ICntrl=     600 IOpCl=  0 I1Cent=           0 NGrid=           0
         NMat0=    1 NMatS0=    903 NMatT0=    0 NMatD0=    1 NMtDS0=    0 NMtDT0=    0
 Petite list used in FoFCou.
          Solving linear equations simultaneously, MaxMat=       0.
          There are    12 degrees of freedom in the 1st order CPHF.  IDoFFX=6 NUNeed=     3.
      9 vectors produced by pass  0 Test12= 2.04D-15 8.33D-09 XBig12= 2.10D+01 2.88D+00.
 AX will form     9 AO Fock derivatives at one time.
      9 vectors produced by pass  1 Test12= 2.04D-15 8.33D-09 XBig12= 1.13D+01 1.29D+00.
      9 vectors produced by pass  2 Test12= 2.04D-15 8.33D-09 XBig12= 6.22D-02 7.90D-02.
      9 vectors produced by pass  3 Test12= 2.04D-15 8.33D-09 XBig12= 1.20D-04 3.37D-03.
      9 vectors produced by pass  4 Test12= 2.04D-15 8.33D-09 XBig12= 1.34D-07 1.03D-04.
      8 vectors produced by pass  5 Test12= 2.04D-15 8.33D-09 XBig12= 2.33D-10 4.28D-06.
      3 vectors produced by pass  6 Test12= 2.04D-15 8.33D-09 XBig12= 2.39D-13 1.40D-07.
 InvSVY:  IOpt=1 It=  1 EMax= 8.88D-16
 Solved reduced A of dimension    56 with     9 vectors.
 FullF1:  Do perturbations    1 to     3.
 Isotropic polarizability for W=    0.000000       14.31 Bohr**3.
 End of Minotr F.D. properties file   721 does not exist.
 End of Minotr F.D. properties file   722 does not exist.
 End of Minotr F.D. properties file   788 does not exist.
 Leave Link 1002 at Thu Apr 14 12:40:10 2016, MaxMem=   104857600 cpu:         1.3
 (Enter /home/projets/algogen/g09.D01/g09/l601.exe)
 Copying SCF densities to generalized density rwf, IOpCl= 0 IROHF=0.

 **********************************************************************

            Population analysis using the SCF density.

 **********************************************************************

 Orbital symmetries:
       Occupied  (A') (A') (A') (A') (A') (A") (A')
       Virtual   (A') (A") (A') (A') (A') (A") (A') (A') (A') (A')
                 (A") (A') (A") (A') (A') (A") (A') (A') (A") (A')
                 (A") (A') (A') (A') (A") (A') (A") (A') (A') (A')
                 (A") (A') (A') (A') (A')
 The electronic state is 1-A'.
 Alpha  occ. eigenvalues --  -14.38545 -10.23481  -0.99489  -0.53207  -0.45620
 Alpha  occ. eigenvalues --   -0.39335  -0.34560
 Alpha virt. eigenvalues --   -0.06907   0.00031   0.03491   0.21637   0.30378
 Alpha virt. eigenvalues --    0.39560   0.40754   0.52664   0.54653   0.63190
 Alpha virt. eigenvalues --    0.63924   0.73027   1.00197   1.02794   1.23329
 Alpha virt. eigenvalues --    1.35723   1.42497   1.57732   1.73763   1.88526
 Alpha virt. eigenvalues --    2.00351   2.14167   2.22406   2.36243   2.43659
 Alpha virt. eigenvalues --    2.68245   2.73748   2.82681   2.98492   3.18552
 Alpha virt. eigenvalues --    3.71847   3.81469   4.31886  23.91935  35.52712
     Molecular Orbital Coefficients:
                           1         2         3         4         5
                           O         O         O         O         O
     Eigenvalues --   -14.38545 -10.23481  -0.99489  -0.53207  -0.45620
   1 1   C  1S         -0.00007   0.56274  -0.07694   0.03616   0.06857
   2        2S          0.00059   0.46348  -0.11648   0.05806   0.10905
   3        2PX         0.00005  -0.00008  -0.01768   0.13452  -0.08434
   4        2PY        -0.00041  -0.00082  -0.10594  -0.05183   0.02479
   5        2PZ         0.00000   0.00000   0.00000   0.00000   0.00000
   6        3S         -0.00181   0.01797   0.29722  -0.16653  -0.31649
   7        3PX        -0.00029  -0.00235  -0.02507   0.19412  -0.11998
   8        3PY         0.00372  -0.00671  -0.12245  -0.06547   0.03839
   9        3PZ         0.00000   0.00000   0.00000   0.00000   0.00000
  10        4S          0.00325   0.00062   0.05557  -0.14251  -0.28557
  11        4PX         0.00017   0.00047  -0.00466   0.09585  -0.04329
  12        4PY        -0.00259  -0.00158   0.00170  -0.03509  -0.01285
  13        4PZ         0.00000   0.00000   0.00000   0.00000   0.00000
  14        5D 0        0.00116  -0.00255  -0.01535   0.00362   0.00118
  15        5D+1        0.00000   0.00000   0.00000   0.00000   0.00000
  16        5D-1        0.00000   0.00000   0.00000   0.00000   0.00000
  17        5D+2        0.00215  -0.00223  -0.01662  -0.02340   0.00717
  18        5D-2       -0.00002   0.00078   0.00770  -0.02812   0.01897
  19 2   N  1S          0.55725  -0.00026  -0.09755  -0.06104  -0.05365
  20        2S          0.46597   0.00020  -0.15339  -0.09776  -0.08621
  21        2PX        -0.00020   0.00006  -0.01248   0.11842  -0.10787
  22        2PY         0.00082   0.00087   0.09575  -0.04300  -0.17812
  23        2PZ         0.00000   0.00000   0.00000   0.00000   0.00000
  24        3S          0.01560  -0.00239   0.41933   0.28391   0.25013
  25        3PX        -0.00001  -0.00009  -0.02113   0.17555  -0.16374
  26        3PY         0.00353  -0.00517   0.12878  -0.05746  -0.24007
  27        3PZ         0.00000   0.00000   0.00000   0.00000   0.00000
  28        4S         -0.00791  -0.00682   0.26390   0.31322   0.36842
  29        4PX         0.00019   0.00009  -0.00896   0.10415  -0.12639
  30        4PY        -0.00229  -0.00269   0.05084  -0.04064  -0.16682
  31        4PZ         0.00000   0.00000   0.00000   0.00000   0.00000
  32        5D 0       -0.00067   0.00107  -0.01366   0.00356   0.00596
  33        5D+1        0.00000   0.00000   0.00000   0.00000   0.00000
  34        5D-1        0.00000   0.00000   0.00000   0.00000   0.00000
  35        5D+2       -0.00127   0.00217  -0.01570  -0.00161   0.02177
  36        5D-2        0.00003   0.00012  -0.00522   0.02150  -0.01594
  37 3   H  1S          0.00035   0.00001   0.06905  -0.15539   0.05168
  38        2S         -0.00046  -0.00275   0.07308  -0.24886   0.09794
  39        3S          0.00065   0.00183  -0.00462  -0.05074   0.07576
  40        4PX        -0.00011  -0.00228   0.01704  -0.02229   0.00487
  41        4PY        -0.00042  -0.00059  -0.00505  -0.00279  -0.01624
  42        4PZ         0.00000   0.00000   0.00000   0.00000   0.00000
                           6         7         8         9        10
                           O         O         V         V         V
     Eigenvalues --    -0.39335  -0.34560  -0.06907   0.00031   0.03491
   1 1   C  1S          0.00000  -0.05064   0.02821   0.00000   0.02677
   2        2S          0.00000  -0.08195   0.04490   0.00000   0.04228
   3        2PX         0.00000   0.03330  -0.10717   0.00000   0.19058
   4        2PY         0.00000   0.21221  -0.04553   0.00000  -0.03434
   5        2PZ         0.17020   0.00000   0.00000   0.22246   0.00000
   6        3S          0.00000   0.22208  -0.12030   0.00000  -0.10400
   7        3PX         0.00000   0.04106  -0.16015   0.00000   0.26335
   8        3PY         0.00000   0.27793  -0.06644   0.00000  -0.02631
   9        3PZ         0.25173   0.00000   0.00000   0.33492   0.00000
  10        4S          0.00000   0.49088  -0.32081   0.00000  -0.96088
  11        4PX         0.00000   0.03770  -0.24240   0.00000   0.80911
  12        4PY         0.00000   0.13861  -0.12203   0.00000   0.00389
  13        4PZ         0.18150   0.00000   0.00000   0.66017   0.00000
  14        5D 0        0.00000   0.01009  -0.00945   0.00000   0.00414
  15        5D+1       -0.00865   0.00000   0.00000  -0.01158   0.00000
  16        5D-1       -0.04463   0.00000   0.00000   0.01762   0.00000
  17        5D+2        0.00000   0.02484   0.01726   0.00000   0.01518
  18        5D-2        0.00000  -0.01809  -0.02641   0.00000  -0.00647
  19 2   N  1S          0.00000  -0.00510   0.00777   0.00000   0.02079
  20        2S          0.00000  -0.00778   0.01218   0.00000   0.03380
  21        2PX         0.00000   0.06831   0.24908   0.00000  -0.02875
  22        2PY         0.00000  -0.17406  -0.00717   0.00000   0.01727
  23        2PZ         0.22796   0.00000   0.00000  -0.21046   0.00000
  24        3S          0.00000   0.02020  -0.02641   0.00000  -0.11148
  25        3PX         0.00000   0.10133   0.35444   0.00000  -0.04207
  26        3PY         0.00000  -0.23769  -0.01645   0.00000   0.03057
  27        3PZ         0.33480   0.00000   0.00000  -0.29042   0.00000
  28        4S          0.00000   0.03827  -0.18101   0.00000  -0.16103
  29        4PX         0.00000   0.10052   0.56701   0.00000  -0.11998
  30        4PY         0.00000  -0.21689  -0.03051   0.00000   0.11468
  31        4PZ         0.27672   0.00000   0.00000  -0.55082   0.00000
  32        5D 0        0.00000   0.01079   0.00011   0.00000  -0.00598
  33        5D+1       -0.00469   0.00000   0.00000   0.00228   0.00000
  34        5D-1        0.03132   0.00000   0.00000   0.01387   0.00000
  35        5D+2        0.00000   0.01656   0.00365   0.00000   0.01077
  36        5D-2        0.00000   0.01058   0.00088   0.00000   0.01737
  37 3   H  1S          0.00000   0.01318   0.12345   0.00000   0.06499
  38        2S          0.00000   0.01447   0.29938   0.00000   0.12494
  39        3S          0.00000   0.08396   0.40402   0.00000   1.59150
  40        4PX         0.00000  -0.00575  -0.00003   0.00000  -0.03062
  41        4PY         0.00000   0.01761   0.02775   0.00000  -0.02205
  42        4PZ         0.02279   0.00000   0.00000   0.01802   0.00000
                          11        12        13        14        15
                           V         V         V         V         V
     Eigenvalues --     0.21637   0.30378   0.39560   0.40754   0.52664
   1 1   C  1S         -0.00771  -0.02695   0.00000   0.04214   0.05187
   2        2S         -0.01192  -0.04610   0.00000   0.07559   0.10296
   3        2PX         0.03078  -0.05004   0.00000  -0.19584  -0.05736
   4        2PY         0.00866   0.00442   0.00000  -0.07923   0.12673
   5        2PZ         0.00000   0.00000  -0.22847   0.00000   0.00000
   6        3S         -0.00909   0.04470   0.00000  -0.38273  -0.92894
   7        3PX         0.04012  -0.12149   0.00000  -0.70907  -0.30029
   8        3PY         0.02716  -0.05465   0.00000  -0.41181   0.39951
   9        3PZ         0.00000   0.00000  -0.83994   0.00000   0.00000
  10        4S          1.92000   3.04807   0.00000   0.67854  -0.55305
  11        4PX         0.39108  -0.77043   0.00000   1.06526   0.14268
  12        4PY        -1.43414  -2.22174   0.00000   0.19312  -0.05921
  13        4PZ         0.00000   0.00000   1.12712   0.00000   0.00000
  14        5D 0       -0.01090   0.00848   0.00000  -0.01017  -0.01891
  15        5D+1        0.00000   0.00000   0.00322   0.00000   0.00000
  16        5D-1        0.00000   0.00000   0.04961   0.00000   0.00000
  17        5D+2        0.01412  -0.01999   0.00000  -0.04061  -0.02062
  18        5D-2        0.00774   0.01610   0.00000   0.03330   0.03106
  19 2   N  1S          0.03398   0.03242   0.00000   0.01449  -0.03830
  20        2S          0.05508   0.05269   0.00000   0.02576  -0.06233
  21        2PX        -0.00407  -0.03689   0.00000  -0.03958  -0.01153
  22        2PY        -0.07118   0.00359   0.00000   0.04947  -0.05323
  23        2PZ         0.00000   0.00000  -0.04347   0.00000   0.00000
  24        3S         -0.13179  -0.11348   0.00000  -0.07967   0.13712
  25        3PX         0.00441  -0.04124   0.00000  -0.15449  -0.02621
  26        3PY        -0.10390   0.01748   0.00000   0.08624  -0.38912
  27        3PZ         0.00000   0.00000  -0.15524   0.00000   0.00000
  28        4S         -1.63163  -2.75040   0.00000  -0.55475   0.82220
  29        4PX        -0.11252  -0.02764   0.00000   0.17731  -0.01916
  30        4PY        -0.76149  -1.06609   0.00000  -0.55547   1.78054
  31        4PZ         0.00000   0.00000   0.10646   0.00000   0.00000
  32        5D 0        0.00177   0.03535   0.00000   0.01849   0.03635
  33        5D+1        0.00000   0.00000   0.00059   0.00000   0.00000
  34        5D-1        0.00000   0.00000  -0.03692   0.00000   0.00000
  35        5D+2        0.02772   0.00278   0.00000   0.02537   0.04835
  36        5D-2       -0.00393   0.00773   0.00000  -0.02885  -0.00373
  37 3   H  1S          0.12045  -0.08844   0.00000  -0.04361  -0.02053
  38        2S          0.90571  -1.30916   0.00000  -0.09578  -0.49754
  39        3S         -1.24376   0.15806   0.00000   0.63545   0.26405
  40        4PX         0.02746  -0.02352   0.00000   0.03890  -0.08261
  41        4PY        -0.01645  -0.00108   0.00000  -0.02016  -0.00260
  42        4PZ         0.00000   0.00000  -0.01056   0.00000   0.00000
                          16        17        18        19        20
                           V         V         V         V         V
     Eigenvalues --     0.54653   0.63190   0.63924   0.73027   1.00197
   1 1   C  1S          0.07501  -0.01846   0.00000  -0.06633   0.00000
   2        2S          0.14455  -0.03680   0.00000  -0.12971   0.00000
   3        2PX         0.16385   0.05575   0.00000  -0.02585   0.00000
   4        2PY        -0.10324   0.06156   0.00000  -0.23655   0.00000
   5        2PZ         0.00000   0.00000   0.10144   0.00000  -0.05214
   6        3S         -1.16222   0.38171   0.00000   0.80730   0.00000
   7        3PX         0.42421   0.16377   0.00000  -0.03851   0.00000
   8        3PY        -0.66684   0.26362   0.00000  -0.62824   0.00000
   9        3PZ         0.00000   0.00000   0.21829   0.00000  -0.05866
  10        4S          3.54531  -1.27523   0.00000  -0.63054   0.00000
  11        4PX        -1.37359  -0.29221   0.00000   0.29831   0.00000
  12        4PY        -0.49817   0.15550   0.00000   0.20189   0.00000
  13        4PZ         0.00000   0.00000  -0.85309   0.00000  -0.06433
  14        5D 0       -0.04065  -0.01305   0.00000   0.08251   0.00000
  15        5D+1        0.00000   0.00000  -0.01174   0.00000  -0.56654
  16        5D-1        0.00000   0.00000   0.06717   0.00000  -0.08788
  17        5D+2       -0.02052  -0.02144   0.00000   0.12282   0.00000
  18        5D-2        0.03923   0.04610   0.00000  -0.00269   0.00000
  19 2   N  1S          0.01231  -0.01028   0.00000  -0.01110   0.00000
  20        2S          0.02464  -0.02148   0.00000  -0.02866   0.00000
  21        2PX        -0.06424  -0.22555   0.00000  -0.03605   0.00000
  22        2PY        -0.02140   0.02587   0.00000  -0.28115   0.00000
  23        2PZ         0.00000   0.00000  -0.24550   0.00000  -0.00960
  24        3S         -0.10408   0.15319   0.00000   0.36056   0.00000
  25        3PX        -0.17149  -0.79762   0.00000  -0.09094   0.00000
  26        3PY        -0.20000   0.09386   0.00000  -0.69753   0.00000
  27        3PZ         0.00000   0.00000  -0.81558   0.00000   0.02022
  28        4S         -1.37481   0.24526   0.00000  -0.79433   0.00000
  29        4PX         0.27808   1.53523   0.00000   0.10643   0.00000
  30        4PY        -0.64905   0.11752   0.00000   0.23546   0.00000
  31        4PZ         0.00000   0.00000   1.48718   0.00000  -0.10675
  32        5D 0        0.03849  -0.01626   0.00000  -0.04087   0.00000
  33        5D+1        0.00000   0.00000  -0.00257   0.00000  -0.17535
  34        5D-1        0.00000   0.00000  -0.01511   0.00000   0.03453
  35        5D+2        0.04807   0.01041   0.00000  -0.08945   0.00000
  36        5D-2        0.01756  -0.02748   0.00000   0.00486   0.00000
  37 3   H  1S          0.06681  -0.04862   0.00000  -0.01327   0.00000
  38        2S         -0.12124   0.41753   0.00000  -0.10925   0.00000
  39        3S         -1.52865   0.56296   0.00000   0.67702   0.00000
  40        4PX        -0.11192   0.09840   0.00000   0.06683   0.00000
  41        4PY        -0.04104  -0.05199   0.00000   0.11530   0.00000
  42        4PZ         0.00000   0.00000   0.02893   0.00000   0.60867
                          21        22        23        24        25
                           V         V         V         V         V
     Eigenvalues --     1.02794   1.23329   1.35723   1.42497   1.57732
   1 1   C  1S         -0.02259   0.00862   0.00000   0.01976   0.01219
   2        2S         -0.02611   0.02254   0.00000   0.03884   0.02356
   3        2PX        -0.00381  -0.02757   0.00000   0.03322   0.06470
   4        2PY        -0.13051  -0.01659   0.00000   0.03906   0.06090
   5        2PZ         0.00000   0.00000   0.05187   0.00000   0.00000
   6        3S         -0.01475  -0.18502   0.00000  -0.31386  -0.13571
   7        3PX        -0.06743  -0.05818   0.00000   0.18026  -0.02460
   8        3PY         0.34919   0.19755   0.00000  -0.03950   0.19345
   9        3PZ         0.00000   0.00000   0.10090   0.00000   0.00000
  10        4S         -4.32013  -1.23363   0.00000   1.43982  -1.35236
  11        4PX        -0.01334   0.31286   0.00000  -0.58059   0.13172
  12        4PY         2.28705   0.57542   0.00000  -0.69993   0.54598
  13        4PZ         0.00000   0.00000  -0.19609   0.00000   0.00000
  14        5D 0        0.21437  -0.25443   0.00000  -0.68597   0.06848
  15        5D+1        0.00000   0.00000  -0.25171   0.00000   0.00000
  16        5D-1        0.00000   0.00000   0.87078   0.00000   0.00000
  17        5D+2        0.34272   0.26549   0.00000   0.37156   0.15585
  18        5D-2        0.06912  -0.60453   0.00000   0.19052   0.62726
  19 2   N  1S          0.11047   0.01521   0.00000  -0.00903  -0.00194
  20        2S          0.21836   0.03463   0.00000  -0.02024   0.00240
  21        2PX         0.00047  -0.10975   0.00000   0.06322  -0.02420
  22        2PY        -0.12423   0.02823   0.00000  -0.00076   0.06647
  23        2PZ         0.00000   0.00000   0.09139   0.00000   0.00000
  24        3S         -1.80390  -0.41647   0.00000   0.21122  -0.22453
  25        3PX        -0.03560  -0.19938   0.00000   0.10484   0.11498
  26        3PY         0.05257   0.12835   0.00000  -0.00550   0.19533
  27        3PZ         0.00000   0.00000   0.22901   0.00000   0.00000
  28        4S          5.78307   1.75501   0.00000  -1.21158   1.67320
  29        4PX         0.15935  -0.26690   0.00000  -0.08971  -0.17183
  30        4PY         2.14621   0.63638   0.00000  -0.31747   0.63727
  31        4PZ         0.00000   0.00000   0.14919   0.00000   0.00000
  32        5D 0       -0.05703   0.00561   0.00000  -0.13413   0.37027
  33        5D+1        0.00000   0.00000  -0.04902   0.00000   0.00000
  34        5D-1        0.00000   0.00000  -0.26951   0.00000   0.00000
  35        5D+2       -0.08026  -0.02639   0.00000   0.13531  -0.21738
  36        5D-2       -0.02069   0.21809   0.00000  -0.08358  -0.06001
  37 3   H  1S          0.08968  -0.06590   0.00000   0.29207   0.19042
  38        2S         -0.37793   0.06727   0.00000  -1.16126  -0.40887
  39        3S          0.45078  -0.00515   0.00000   0.18496   0.28395
  40        4PX         0.02713  -0.10983   0.00000   0.40628  -0.16604
  41        4PY        -0.12259   0.48984   0.00000  -0.08505   0.76097
  42        4PZ         0.00000   0.00000  -0.07945   0.00000   0.00000
                          26        27        28        29        30
                           V         V         V         V         V
     Eigenvalues --     1.73763   1.88526   2.00351   2.14167   2.22406
   1 1   C  1S          0.00000   0.02929   0.00000   0.00668  -0.01965
   2        2S          0.00000   0.04918   0.00000   0.02929  -0.04463
   3        2PX         0.00000   0.03929   0.00000  -0.37825  -0.30392
   4        2PY         0.00000   0.38655   0.00000  -0.22812   0.18258
   5        2PZ        -0.08456   0.00000  -0.03518   0.00000   0.00000
   6        3S          0.00000  -0.00238   0.00000  -0.35915   0.31364
   7        3PX         0.00000   0.22877   0.00000   0.58973  -0.01786
   8        3PY         0.00000  -0.04495   0.00000   0.36223  -0.30842
   9        3PZ         0.04854   0.00000   0.03034   0.00000   0.00000
  10        4S          0.00000  -0.68747   0.00000  -0.28014   0.95957
  11        4PX         0.00000   0.24056   0.00000  -0.19004  -0.37422
  12        4PY         0.00000   0.56634   0.00000   0.17149  -0.09235
  13        4PZ        -0.23360   0.00000  -0.04525   0.00000   0.00000
  14        5D 0        0.00000   0.84226   0.00000  -0.03779  -0.30528
  15        5D+1        0.83565   0.00000  -0.25516   0.00000   0.00000
  16        5D-1        0.25423   0.00000   0.01939   0.00000   0.00000
  17        5D+2        0.00000   0.63090   0.00000   0.12805   0.79188
  18        5D-2        0.00000  -0.17726   0.00000   0.28109  -0.13604
  19 2   N  1S          0.00000  -0.04193   0.00000   0.01363  -0.01816
  20        2S          0.00000  -0.09683   0.00000   0.02423  -0.04242
  21        2PX         0.00000   0.00983   0.00000   0.01327  -0.00183
  22        2PY         0.00000   0.09416   0.00000   0.00747   0.00725
  23        2PZ         0.01977   0.00000   0.00807   0.00000   0.00000
  24        3S          0.00000   0.91089   0.00000  -0.23516   0.47270
  25        3PX         0.00000  -0.02758   0.00000   0.13693  -0.04067
  26        3PY         0.00000   0.65110   0.00000   0.08260   0.21057
  27        3PZ         0.09529   0.00000   0.00649   0.00000   0.00000
  28        4S          0.00000  -0.09108   0.00000   0.90535  -0.85332
  29        4PX         0.00000   0.05372   0.00000  -0.13024   0.07781
  30        4PY         0.00000  -0.50018   0.00000   0.29786  -0.53259
  31        4PZ        -0.04018   0.00000  -0.00745   0.00000   0.00000
  32        5D 0        0.00000  -0.07745   0.00000  -0.30021   0.57786
  33        5D+1        0.01335   0.00000   0.99551   0.00000   0.00000
  34        5D-1       -0.07058   0.00000  -0.02104   0.00000   0.00000
  35        5D+2        0.00000   0.31229   0.00000   0.14895  -0.21972
  36        5D-2        0.00000   0.00159   0.00000  -0.15550  -0.24705
  37 3   H  1S          0.00000  -0.01865   0.00000  -1.21442  -0.29711
  38        2S          0.00000   0.52820   0.00000   1.44757  -0.19043
  39        3S          0.00000   0.20902   0.00000  -0.79487  -0.32917
  40        4PX         0.00000   0.41821   0.00000  -0.06212  -0.53375
  41        4PY         0.00000   0.07726   0.00000   0.34314  -0.67951
  42        4PZ         0.90575   0.00000   0.15082   0.00000   0.00000
                          31        32        33        34        35
                           V         V         V         V         V
     Eigenvalues --     2.36243   2.43659   2.68245   2.73748   2.82681
   1 1   C  1S          0.01692   0.00000   0.00648   0.00000   0.05069
   2        2S          0.04085   0.00000   0.00510   0.00000   0.13133
   3        2PX         0.61939   0.00000  -0.15453   0.00000  -0.13933
   4        2PY        -0.12983   0.00000  -0.07647   0.00000   0.51700
   5        2PZ         0.00000   0.83358   0.00000  -1.00534   0.00000
   6        3S         -0.19582   0.00000   0.14679   0.00000  -1.08549
   7        3PX         0.07179   0.00000   0.64991   0.00000   0.47500
   8        3PY         0.19179   0.00000  -0.33664   0.00000   0.46087
   9        3PZ         0.00000  -0.67839   0.00000   1.38447   0.00000
  10        4S         -0.62698   0.00000   0.74862   0.00000  -1.58338
  11        4PX         0.75266   0.00000  -0.02204   0.00000   0.04666
  12        4PY         0.10249   0.00000  -0.36758   0.00000   0.77957
  13        4PZ         0.00000   0.54180   0.00000  -0.31277   0.00000
  14        5D 0        0.14045   0.00000   0.03887   0.00000   0.33641
  15        5D+1        0.00000   0.03216   0.00000  -0.05197   0.00000
  16        5D-1        0.00000  -0.61603   0.00000  -0.56062   0.00000
  17        5D+2       -0.39578   0.00000  -0.59930   0.00000   0.21267
  18        5D-2       -0.71340   0.00000   0.12310   0.00000  -0.07661
  19 2   N  1S          0.01045   0.00000   0.01064   0.00000  -0.00414
  20        2S          0.01790   0.00000   0.01710   0.00000  -0.00705
  21        2PX         0.02084   0.00000   0.25630   0.00000   0.09360
  22        2PY        -0.06509   0.00000  -0.21623   0.00000   0.39030
  23        2PZ         0.00000  -0.03581   0.00000  -0.20497   0.00000
  24        3S         -0.06999   0.00000   0.10408   0.00000  -0.08217
  25        3PX        -0.02664   0.00000  -0.16402   0.00000  -0.08386
  26        3PY        -0.06324   0.00000  -0.15695   0.00000  -0.01064
  27        3PZ         0.00000   0.00933   0.00000  -0.00549   0.00000
  28        4S         -0.04129   0.00000  -1.79067   0.00000   1.93742
  29        4PX        -0.18824   0.00000   0.58596   0.00000   0.20278
  30        4PY        -0.06126   0.00000  -0.98783   0.00000   1.03924
  31        4PZ         0.00000  -0.38714   0.00000  -0.24613   0.00000
  32        5D 0        0.29426   0.00000   0.62454   0.00000  -0.39528
  33        5D+1        0.00000   0.00804   0.00000  -0.02677   0.00000
  34        5D-1        0.00000  -0.82388   0.00000  -0.80966   0.00000
  35        5D+2       -0.11042   0.00000   0.16225   0.00000  -1.03026
  36        5D-2       -0.65173   0.00000   0.75463   0.00000   0.14703
  37 3   H  1S         -0.47619   0.00000  -0.54434   0.00000  -0.30637
  38        2S          1.48952   0.00000   1.90588   0.00000   0.92850
  39        3S          0.03895   0.00000  -0.30165   0.00000  -0.01672
  40        4PX         0.80294   0.00000   1.02412   0.00000   0.55529
  41        4PY         0.18848   0.00000  -0.14463   0.00000  -0.00519
  42        4PZ         0.00000   0.06632   0.00000  -0.13530   0.00000
                          36        37        38        39        40
                           V         V         V         V         V
     Eigenvalues --     2.98492   3.18552   3.71847   3.81469   4.31886
   1 1   C  1S          0.07004   0.04181   0.00000   0.00974   0.05618
   2        2S          0.15038   0.06746   0.00000   0.02207   0.13959
   3        2PX         0.02479  -1.10872   0.00000   0.19011   0.05525
   4        2PY        -1.16266  -0.11399   0.00000   0.02622   0.17644
   5        2PZ         0.00000   0.00000   0.16170   0.00000   0.00000
   6        3S         -0.99347  -0.33486   0.00000  -0.19542  -1.18726
   7        3PX        -0.05245   2.21962   0.00000  -0.34632  -0.20542
   8        3PY         2.92630   0.21801   0.00000   0.10301   1.49894
   9        3PZ         0.00000   0.00000  -0.37553   0.00000   0.00000
  10        4S         -2.11445  -0.01888   0.00000   0.41589  -1.25988
  11        4PX         0.12290  -0.22443   0.00000   0.11620   0.03412
  12        4PY         0.32342  -0.15893   0.00000  -0.13181   0.53950
  13        4PZ         0.00000   0.00000   0.24375   0.00000   0.00000
  14        5D 0        0.66694   0.36877   0.00000   0.00247   0.39272
  15        5D+1        0.00000   0.00000   0.01404   0.00000   0.00000
  16        5D-1        0.00000   0.00000   0.28880   0.00000   0.00000
  17        5D+2        1.05178  -0.68960   0.00000   0.10031   0.83475
  18        5D-2       -0.03807  -0.70461   0.00000   0.29889   0.05890
  19 2   N  1S         -0.04989   0.00273   0.00000  -0.00464  -0.04543
  20        2S         -0.12553   0.00381   0.00000  -0.01045  -0.08060
  21        2PX         0.03758  -0.22534   0.00000  -1.24814   0.11037
  22        2PY         0.10428  -0.11257   0.00000  -0.09563  -1.27848
  23        2PZ         0.00000   0.00000  -1.27854   0.00000   0.00000
  24        3S          1.16068   0.04143   0.00000   0.15356   0.55852
  25        3PX        -0.06962   0.01536   0.00000   1.57975  -0.13620
  26        3PY         1.33675   0.03789   0.00000   0.19221   2.57708
  27        3PZ         0.00000   0.00000   1.56139   0.00000   0.00000
  28        4S          1.98531  -0.50940   0.00000  -0.35635   2.09063
  29        4PX         0.19666  -0.14616   0.00000  -0.50732  -0.00128
  30        4PY         0.88448  -0.36070   0.00000  -0.21690   0.29256
  31        4PZ         0.00000   0.00000  -0.62516   0.00000   0.00000
  32        5D 0       -0.22295   0.13467   0.00000   0.03678  -0.49146
  33        5D+1        0.00000   0.00000   0.00866   0.00000   0.00000
  34        5D-1        0.00000   0.00000   0.20936   0.00000   0.00000
  35        5D+2       -0.63335   0.01489   0.00000  -0.11620  -0.72972
  36        5D-2        0.12736  -0.51117   0.00000   0.32742  -0.03274
  37 3   H  1S          0.18203   0.47289   0.00000  -0.28793   0.03599
  38        2S         -0.05002   0.99599   0.00000   0.36430  -0.29791
  39        3S          0.39296  -0.16230   0.00000  -0.23265   0.10041
  40        4PX         0.15953   1.05163   0.00000   0.17690  -0.24869
  41        4PY        -0.20865   0.39007   0.00000  -0.21928   0.06409
  42        4PZ         0.00000   0.00000   0.04064   0.00000   0.00000
                          41        42
                           V         V
     Eigenvalues --    23.91935  35.52712
   1 1   C  1S         -2.03820   0.09669
   2        2S          2.24441  -0.14063
   3        2PX        -0.03876  -0.00140
   4        2PY        -0.06009   0.03296
   5        2PZ         0.00000   0.00000
   6        3S         -0.75268   0.16936
   7        3PX         0.16694   0.01050
   8        3PY         0.54854  -0.29834
   9        3PZ         0.00000   0.00000
  10        4S         -0.26534  -0.07625
  11        4PX        -0.01250  -0.00952
  12        4PY         0.13618   0.09714
  13        4PZ         0.00000   0.00000
  14        5D 0        0.17917  -0.09428
  15        5D+1        0.00000   0.00000
  16        5D-1        0.00000   0.00000
  17        5D+2        0.16585  -0.16479
  18        5D-2       -0.04927   0.00431
  19 2   N  1S         -0.08541  -2.14737
  20        2S          0.05000   2.28531
  21        2PX        -0.00560   0.00016
  22        2PY        -0.07671   0.05310
  23        2PZ         0.00000   0.00000
  24        3S          0.18805  -0.51178
  25        3PX         0.00438   0.00316
  26        3PY         0.44939  -0.29007
  27        3PZ         0.00000   0.00000
  28        4S          0.58164   0.25418
  29        4PX        -0.00035  -0.01460
  30        4PY         0.20818   0.09035
  31        4PZ         0.00000   0.00000
  32        5D 0       -0.10345   0.04630
  33        5D+1        0.00000   0.00000
  34        5D-1        0.00000   0.00000
  35        5D+2       -0.20442   0.08914
  36        5D-2       -0.00845  -0.00355
  37 3   H  1S          0.00258  -0.02240
  38        2S          0.18574   0.01953
  39        3S         -0.07050  -0.03656
  40        4PX         0.15849  -0.00134
  41        4PY         0.04408   0.02558
  42        4PZ         0.00000   0.00000
     Density Matrix:
                           1         2         3         4         5
   1 1   C  1S          0.66235
   2        2S          0.56702   0.50073
   3        2PX        -0.00257  -0.00418   0.05326
   4        2PY        -0.00646  -0.01147  -0.00025   0.11912
   5        2PZ         0.00000   0.00000   0.00000   0.00000   0.05794
   6        3S         -0.10345  -0.17734   0.01286   0.03282   0.00000
   7        3PX        -0.00537  -0.00670   0.07609  -0.00333   0.00000
   8        3PY        -0.01633  -0.02247  -0.00125   0.15260   0.00000
   9        3PZ         0.00000   0.00000   0.00000   0.00000   0.08569
  10        4S         -0.10704  -0.17165   0.04055   0.19717   0.00000
  11        4PX        -0.00157  -0.00296   0.03577   0.00491   0.00000
  12        4PY        -0.02037  -0.03145   0.00190   0.06147   0.00000
  13        4PZ         0.00000   0.00000   0.00000   0.00000   0.06178
  14        5D 0       -0.00110   0.00024   0.00199   0.00722   0.00000
  15        5D+1        0.00000   0.00000   0.00000   0.00000  -0.00295
  16        5D-1        0.00000   0.00000   0.00000   0.00000  -0.01519
  17        5D+2       -0.00318  -0.00342  -0.00526   0.01685   0.00000
  18        5D-2        0.00210   0.00277  -0.01224  -0.00545   0.00000
  19 2   N  1S          0.00339   0.00519  -0.00421   0.02171   0.00000
  20        2S          0.00566   0.00759  -0.00681   0.03468   0.00000
  21        2PX        -0.01116  -0.01801   0.05504   0.01401   0.00000
  22        2PY        -0.02367  -0.03681   0.00350  -0.09854   0.00000
  23        2PZ         0.00000   0.00000   0.00000   0.00000   0.07760
  24        3S         -0.01442  -0.01568   0.02071  -0.09731   0.00000
  25        3PX        -0.01687  -0.02709   0.08234   0.02117   0.00000
  26        3PY        -0.03864  -0.05486   0.00465  -0.13411   0.00000
  27        3PZ         0.00000   0.00000   0.00000   0.00000   0.11397
  28        4S          0.02102   0.04264   0.01534  -0.05385   0.00000
  29        4PX        -0.01850  -0.02978   0.05635   0.02750   0.00000
  30        4PY        -0.01471  -0.01990   0.00096  -0.10688   0.00000
  31        4PZ         0.00000   0.00000   0.00000   0.00000   0.09420
  32        5D 0        0.00329   0.00412   0.00115   0.00740   0.00000
  33        5D+1        0.00000   0.00000   0.00000   0.00000  -0.00160
  34        5D-1        0.00000   0.00000   0.00000   0.00000   0.01066
  35        5D+2        0.00605   0.00751  -0.00245   0.01160   0.00000
  36        5D-2       -0.00077  -0.00139   0.00936   0.00258   0.00000
  37 3   H  1S         -0.01610  -0.02501  -0.05209   0.00963   0.00000
  38        2S         -0.02037  -0.02948  -0.08509   0.02131   0.00000
  39        3S          0.00098  -0.00036  -0.02067   0.04562   0.00000
  40        4PX        -0.00555  -0.00667  -0.00780  -0.00349   0.00000
  41        4PY        -0.00410  -0.00613   0.00334   0.00803   0.00000
  42        4PZ         0.00000   0.00000   0.00000   0.00000   0.00776
                           6         7         8         9        10
   6        3S          0.53177
   7        3PX         0.01455   0.10880
   8        3PY         0.04791  -0.00564   0.19612
   9        3PZ         0.00000   0.00000   0.00000   0.12674
  10        4S          0.47930   0.05072   0.25600   0.00000   0.69184
  11        4PX         0.00947   0.05093   0.00622   0.00000   0.03390
  12        4PY         0.08235   0.00077   0.08024   0.00000   0.15359
  13        4PZ         0.00000   0.00000   0.00000   0.09138   0.00000
  14        5D 0       -0.00669   0.00273   0.00903   0.00000   0.00650
  15        5D+1        0.00000   0.00000   0.00000  -0.00436   0.00000
  16        5D-1        0.00000   0.00000   0.00000  -0.02247   0.00000
  17        5D+2        0.00432  -0.00792   0.02154   0.00000   0.02513
  18        5D-2       -0.00607  -0.01735  -0.00681   0.00000  -0.01972
  19 2   N  1S         -0.00799  -0.00667   0.02908   0.00000   0.03581
  20        2S         -0.00918  -0.01048   0.04289   0.00000   0.05545
  21        2PX         0.05176   0.07810   0.01723   0.00000   0.09353
  22        2PY         0.10670   0.00695  -0.12826   0.00000  -0.04625
  23        2PZ         0.00000   0.00000   0.00000   0.11477   0.00000
  24        3S          0.00520   0.03084  -0.10929   0.00000  -0.15724
  25        3PX         0.07762   0.11683   0.02594   0.00000   0.14061
  26        3PY         0.14187   0.00934  -0.17447   0.00000  -0.06554
  27        3PZ         0.00000   0.00000   0.00000   0.16856   0.00000
  28        4S         -0.16387   0.02315  -0.05605   0.00000  -0.23285
  29        4PX         0.08464   0.07947   0.03473   0.00000   0.14019
  30        4PY         0.05292   0.00390  -0.14048   0.00000  -0.10044
  31        4PZ         0.00000   0.00000   0.00000   0.13932   0.00000
  32        5D 0       -0.00824   0.00152   0.00932   0.00000   0.00465
  33        5D+1        0.00000   0.00000   0.00000  -0.00236   0.00000
  34        5D-1        0.00000   0.00000   0.00000   0.01577   0.00000
  35        5D+2       -0.01514  -0.00371   0.01490   0.00000   0.00254
  36        5D-2        0.00453   0.01330   0.00312   0.00000   0.01279
  37 3   H  1S          0.06594  -0.07511   0.01474   0.00000   0.03540
  38        2S          0.07066  -0.12258   0.03029   0.00000   0.03731
  39        3S          0.00355  -0.03076   0.06024   0.00000   0.05311
  40        4PX         0.01183  -0.01114  -0.00404   0.00000  -0.00018
  41        4PY         0.01601   0.00452   0.01015   0.00000   0.02680
  42        4PZ         0.00000   0.00000   0.00000   0.01147   0.00000
                          11        12        13        14        15
  11        4PX         0.02501
  12        4PY         0.00482   0.04124
  13        4PZ         0.00000   0.00000   0.06589
  14        5D 0        0.00149   0.00246   0.00000   0.00072
  15        5D+1        0.00000   0.00000  -0.00314   0.00000   0.00015
  16        5D-1        0.00000   0.00000  -0.01620   0.00000   0.00077
  17        5D+2       -0.00308   0.00828   0.00000   0.00088   0.00000
  18        5D-2       -0.00847  -0.00350   0.00000  -0.00076   0.00000
  19 2   N  1S         -0.00634   0.00103   0.00000   0.00362   0.00000
  20        2S         -0.01027   0.00399   0.00000   0.00472   0.00000
  21        2PX         0.03731   0.01336   0.00000   0.00236   0.00000
  22        2PY        -0.00684  -0.04034   0.00000  -0.00719   0.00000
  23        2PZ         0.00000   0.00000   0.08275   0.00000  -0.00394
  24        3S          0.03039  -0.01940   0.00000  -0.00977   0.00000
  25        3PX         0.05567   0.01991   0.00000   0.00358   0.00000
  26        3PY        -0.00936  -0.05525   0.00000  -0.00970   0.00000
  27        3PZ         0.00000   0.00000   0.12153   0.00000  -0.00579
  28        4S          0.02856  -0.01989   0.00000  -0.00418   0.00000
  29        4PX         0.03857   0.02377   0.00000   0.00276   0.00000
  30        4PY        -0.01018  -0.05279   0.00000  -0.00662   0.00000
  31        4PZ         0.00000   0.00000   0.10045   0.00000  -0.00479
  32        5D 0        0.00111   0.00254   0.00000   0.00067   0.00000
  33        5D+1        0.00000   0.00000  -0.00170   0.00000   0.00008
  34        5D-1        0.00000   0.00000   0.01137   0.00000  -0.00054
  35        5D+2       -0.00080   0.00409   0.00000   0.00084   0.00000
  36        5D-2        0.00635   0.00182   0.00000   0.00049   0.00000
  37 3   H  1S         -0.03391   0.01347   0.00000  -0.00286   0.00000
  38        2S         -0.05578   0.01922   0.00000  -0.00351   0.00000
  39        3S         -0.00991   0.02486   0.00000   0.00164   0.00000
  40        4PX        -0.00529  -0.00009   0.00000  -0.00078   0.00000
  41        4PY         0.00225   0.00548   0.00000   0.00045   0.00000
  42        4PZ         0.00000   0.00000   0.00827   0.00000  -0.00039
                          16        17        18        19        20
  16        5D-1        0.00398
  17        5D+2        0.00000   0.00300
  18        5D-2        0.00000   0.00043   0.00308
  19 2   N  1S          0.00000   0.00747   0.00005   0.65335
  20        2S          0.00000   0.01005   0.00013   0.57052   0.51542
  21        2PX         0.00000  -0.00328  -0.01342  -0.00137  -0.00198
  22        2PY         0.00000  -0.01237   0.00343   0.00837   0.01322
  23        2PZ        -0.02035   0.00000   0.00000   0.00000   0.00000
  24        3S          0.00000  -0.02256  -0.00076  -0.12613  -0.21306
  25        3PX         0.00000  -0.00483  -0.02008  -0.00078  -0.00119
  26        3PY         0.00000  -0.01681   0.00470   0.01401   0.02010
  27        3PZ        -0.02988   0.00000   0.00000   0.00000   0.00000
  28        4S          0.00000  -0.01625  -0.00097  -0.13846  -0.21370
  29        4PX         0.00000  -0.00139  -0.01443   0.00179   0.00279
  30        4PY         0.00000  -0.01295   0.00458   0.01260   0.02235
  31        4PZ        -0.02470   0.00000   0.00000   0.00000   0.00000
  32        5D 0        0.00000   0.00090  -0.00057   0.00073   0.00167
  33        5D+1        0.00042   0.00000   0.00000   0.00000   0.00000
  34        5D-1       -0.00280   0.00000   0.00000   0.00000   0.00000
  35        5D+2        0.00000   0.00172   0.00008  -0.00066  -0.00006
  36        5D-2        0.00000  -0.00054  -0.00228   0.00003   0.00001
  37 3   H  1S          0.00000   0.00637   0.01129   0.00021   0.00041
  38        2S          0.00000   0.01135   0.01831   0.00495   0.00869
  39        3S          0.00000   0.00778   0.00262  -0.00116  -0.00242
  40        4PX         0.00000   0.00027   0.00191  -0.00119  -0.00172
  41        4PY         0.00000   0.00094  -0.00118   0.00242   0.00423
  42        4PZ        -0.00203   0.00000   0.00000   0.00000   0.00000
                          21        22        23        24        25
  21        2PX         0.06096
  22        2PY         0.00207   0.14608
  23        2PZ         0.00000   0.00000   0.10393
  24        3S          0.00557  -0.04023   0.00000   0.63932
  25        3PX         0.09127   0.00391   0.00000   0.00414   0.13668
  26        3PY         0.00249   0.19786   0.00000  -0.05420   0.00483
  27        3PZ         0.00000   0.00000   0.15264   0.00000   0.00000
  28        4S         -0.00665  -0.12099   0.00000   0.58481  -0.01407
  29        4PX         0.06589  -0.00064   0.00000  -0.00753   0.09870
  30        4PY        -0.00454   0.14815   0.00000  -0.07271  -0.00574
  31        4PZ         0.00000   0.00000   0.12616   0.00000   0.00000
  32        5D 0        0.00137  -0.00880   0.00000  -0.00604   0.00206
  33        5D+1        0.00000   0.00000  -0.00214   0.00000   0.00000
  34        5D-1        0.00000   0.00000   0.01428   0.00000   0.00000
  35        5D+2       -0.00242  -0.01639   0.00000  -0.00257  -0.00367
  36        5D-2        0.01011  -0.00085   0.00000   0.00028   0.01513
  37 3   H  1S         -0.04787   0.00359   0.00000  -0.00393  -0.07173
  38        2S         -0.07992  -0.00454   0.00000  -0.03044  -0.11960
  39        3S         -0.01678  -0.05273   0.00000   0.00862  -0.02541
  40        4PX        -0.00754   0.00544   0.00000   0.00384  -0.01131
  41        4PY         0.00538  -0.00107   0.00000  -0.01324   0.00812
  42        4PZ         0.00000   0.00000   0.01039   0.00000   0.00000
                          26        27        28        29        30
  26        3PY         0.26810
  27        3PZ         0.00000   0.22418
  28        4S         -0.16310   0.00000   0.61011
  29        4PX        -0.00138   0.00000  -0.02492   0.07401
  30        4PY         0.20098   0.00000  -0.13807  -0.01081   0.15824
  31        4PZ         0.00000   0.18529   0.00000   0.00000   0.00000
  32        5D 0       -0.01194   0.00000   0.00024   0.00165  -0.00835
  33        5D+1        0.00000  -0.00314   0.00000   0.00000   0.00000
  34        5D-1        0.00000   0.02097   0.00000   0.00000   0.00000
  35        5D+2       -0.02221   0.00000   0.00800  -0.00223  -0.01592
  36        5D-2       -0.00119   0.00000  -0.00023   0.01073  -0.00155
  37 3   H  1S          0.00457   0.00000  -0.02182  -0.04402  -0.00331
  38        2S         -0.00646   0.00000  -0.04400  -0.07500  -0.01128
  39        3S         -0.07166   0.00000   0.02799  -0.01276  -0.05805
  40        4PX         0.00736   0.00000  -0.00179  -0.00734   0.00442
  41        4PY        -0.00155   0.00000  -0.01502   0.00716  -0.00250
  42        4PZ         0.00000   0.01526   0.00000   0.00000   0.00000
                          31        32        33        34        35
  31        4PZ         0.15315
  32        5D 0        0.00000   0.00071
  33        5D+1       -0.00260   0.00000   0.00004
  34        5D-1        0.01733   0.00000  -0.00029   0.00196
  35        5D+2        0.00000   0.00104   0.00000   0.00000   0.00201
  36        5D-2        0.00000   0.00033   0.00000   0.00000  -0.00025
  37 3   H  1S          0.00000  -0.00209   0.00000   0.00000   0.00102
  38        2S          0.00000  -0.00229   0.00000   0.00000   0.00324
  39        3S          0.00000   0.00248   0.00000   0.00000   0.00639
  40        4PX         0.00000  -0.00069   0.00000   0.00000  -0.00045
  41        4PY         0.00000   0.00030   0.00000   0.00000   0.00004
  42        4PZ         0.01261   0.00000  -0.00021   0.00143   0.00000
                          36        37        38        39        40
  36        5D-2        0.00171
  37 3   H  1S         -0.00877   0.06352
  38        2S         -0.01428   0.09794   0.15416
  39        3S         -0.00277   0.02517   0.04184   0.03077
  40        4PX        -0.00141   0.00963   0.01439   0.00187   0.00170
  41        4PY         0.00082  -0.00104  -0.00202   0.00082  -0.00041
  42        4PZ         0.00000   0.00000   0.00000   0.00000   0.00000
                          41        42
  41        4PY         0.00122
  42        4PZ         0.00000   0.00104
    Full Mulliken population analysis:
                           1         2         3         4         5
   1 1   C  1S          0.66235
   2        2S          0.49810   0.50073
   3        2PX         0.00000   0.00000   0.05326
   4        2PY         0.00000   0.00000   0.00000   0.11912
   5        2PZ         0.00000   0.00000   0.00000   0.00000   0.05794
   6        3S         -0.03405  -0.07427   0.00000   0.00000   0.00000
   7        3PX         0.00000   0.00000   0.04787   0.00000   0.00000
   8        3PY         0.00000   0.00000   0.00000   0.09601   0.00000
   9        3PZ         0.00000   0.00000   0.00000   0.00000   0.05391
  10        4S         -0.01646  -0.03212   0.00000   0.00000   0.00000
  11        4PX         0.00000   0.00000   0.00788   0.00000   0.00000
  12        4PY         0.00000   0.00000   0.00000   0.01354   0.00000
  13        4PZ         0.00000   0.00000   0.00000   0.00000   0.01361
  14        5D 0        0.00000   0.00000   0.00000   0.00000   0.00000
  15        5D+1        0.00000   0.00000   0.00000   0.00000   0.00000
  16        5D-1        0.00000   0.00000   0.00000   0.00000   0.00000
  17        5D+2        0.00000   0.00000   0.00000   0.00000   0.00000
  18        5D-2        0.00000   0.00000   0.00000   0.00000   0.00000
  19 2   N  1S          0.00000   0.00000   0.00000  -0.00016   0.00000
  20        2S          0.00000   0.00000   0.00000  -0.00018   0.00000
  21        2PX         0.00000   0.00000   0.00049   0.00000   0.00000
  22        2PY        -0.00010  -0.00007   0.00000   0.00681   0.00000
  23        2PZ         0.00000   0.00000   0.00000   0.00000   0.00069
  24        3S         -0.00034  -0.00040   0.00000   0.01278   0.00000
  25        3PX         0.00000   0.00000   0.00585   0.00000   0.00000
  26        3PY        -0.00271  -0.00453   0.00000   0.03561   0.00000
  27        3PZ         0.00000   0.00000   0.00000   0.00000   0.00809
  28        4S          0.00156   0.00380   0.00000   0.00674   0.00000
  29        4PX         0.00000   0.00000   0.00704   0.00000   0.00000
  30        4PY        -0.00206  -0.00342   0.00000   0.01039   0.00000
  31        4PZ         0.00000   0.00000   0.00000   0.00000   0.01177
  32        5D 0       -0.00013  -0.00020   0.00000   0.00104   0.00000
  33        5D+1        0.00000   0.00000   0.00000   0.00000   0.00000
  34        5D-1        0.00000   0.00000   0.00000   0.00000   0.00138
  35        5D+2       -0.00041  -0.00062   0.00000   0.00282   0.00000
  36        5D-2        0.00000   0.00000   0.00121   0.00000   0.00000
  37 3   H  1S         -0.00010  -0.00013   0.00344  -0.00019   0.00000
  38        2S         -0.00120  -0.00207   0.01263  -0.00097   0.00000
  39        3S          0.00007  -0.00003   0.00133  -0.00090   0.00000
  40        4PX        -0.00032  -0.00044   0.00178   0.00031   0.00000
  41        4PY        -0.00007  -0.00012  -0.00030   0.00029   0.00000
  42        4PZ         0.00000   0.00000   0.00000   0.00000   0.00049
                           6         7         8         9        10
   6        3S          0.53177
   7        3PX         0.00000   0.10880
   8        3PY         0.00000   0.00000   0.19612
   9        3PZ         0.00000   0.00000   0.00000   0.12674
  10        4S          0.37131   0.00000   0.00000   0.00000   0.69184
  11        4PX         0.00000   0.03328   0.00000   0.00000   0.00000
  12        4PY         0.00000   0.00000   0.05243   0.00000   0.00000
  13        4PZ         0.00000   0.00000   0.00000   0.05971   0.00000
  14        5D 0        0.00000   0.00000   0.00000   0.00000   0.00000
  15        5D+1        0.00000   0.00000   0.00000   0.00000   0.00000
  16        5D-1        0.00000   0.00000   0.00000   0.00000   0.00000
  17        5D+2        0.00000   0.00000   0.00000   0.00000   0.00000
  18        5D-2        0.00000   0.00000   0.00000   0.00000   0.00000
  19 2   N  1S         -0.00025   0.00000  -0.00257   0.00000   0.00224
  20        2S         -0.00031   0.00000  -0.00426   0.00000   0.00388
  21        2PX         0.00000   0.00511   0.00000   0.00000   0.00000
  22        2PY         0.01086   0.00000   0.02496   0.00000  -0.00296
  23        2PZ         0.00000   0.00000   0.00000   0.00751   0.00000
  24        3S          0.00123   0.00000   0.04723   0.00000  -0.05725
  25        3PX         0.00000   0.02729   0.00000   0.00000   0.00000
  26        3PY         0.05154   0.00000   0.07472   0.00000  -0.01549
  27        3PZ         0.00000   0.00000   0.00000   0.03938   0.00000
  28        4S         -0.07005   0.00000   0.02187   0.00000  -0.14974
  29        4PX         0.00000   0.03094   0.00000   0.00000   0.00000
  30        4PY         0.03204   0.00000   0.02294   0.00000  -0.05441
  31        4PZ         0.00000   0.00000   0.00000   0.05424   0.00000
  32        5D 0        0.00100   0.00000   0.00084   0.00000  -0.00014
  33        5D+1        0.00000   0.00000   0.00000   0.00000   0.00000
  34        5D-1        0.00000   0.00000   0.00000   0.00424   0.00000
  35        5D+2        0.00316   0.00000   0.00233   0.00000  -0.00013
  36        5D-2        0.00000   0.00358   0.00000   0.00000   0.00000
  37 3   H  1S          0.00944   0.02302  -0.00138   0.00000   0.00853
  38        2S          0.02587   0.05381  -0.00406   0.00000   0.02001
  39        3S          0.00154   0.00696  -0.00417   0.00000   0.03839
  40        4PX         0.00380   0.00408   0.00072   0.00000  -0.00004
  41        4PY         0.00157  -0.00080   0.00164   0.00000   0.00170
  42        4PZ         0.00000   0.00000   0.00000   0.00248   0.00000
                          11        12        13        14        15
  11        4PX         0.02501
  12        4PY         0.00000   0.04124
  13        4PZ         0.00000   0.00000   0.06589
  14        5D 0        0.00000   0.00000   0.00000   0.00072
  15        5D+1        0.00000   0.00000   0.00000   0.00000   0.00015
  16        5D-1        0.00000   0.00000   0.00000   0.00000   0.00000
  17        5D+2        0.00000   0.00000   0.00000   0.00000   0.00000
  18        5D-2        0.00000   0.00000   0.00000   0.00000   0.00000
  19 2   N  1S          0.00000  -0.00011   0.00000  -0.00021   0.00000
  20        2S          0.00000  -0.00047   0.00000  -0.00031   0.00000
  21        2PX         0.00280   0.00000   0.00000   0.00000   0.00000
  22        2PY         0.00000   0.00111   0.00000   0.00083   0.00000
  23        2PZ         0.00000   0.00000   0.00621   0.00000   0.00000
  24        3S          0.00000   0.00994   0.00000   0.00188   0.00000
  25        3PX         0.01542   0.00000   0.00000   0.00000   0.00000
  26        3PY         0.00000   0.00307   0.00000   0.00128   0.00000
  27        3PZ         0.00000   0.00000   0.03366   0.00000   0.00000
  28        4S          0.00000   0.01265   0.00000   0.00033   0.00000
  29        4PX         0.02449   0.00000   0.00000   0.00000   0.00000
  30        4PY         0.00000  -0.00522   0.00000  -0.00025   0.00000
  31        4PZ         0.00000   0.00000   0.06377   0.00000   0.00000
  32        5D 0        0.00000  -0.00007   0.00000   0.00009   0.00000
  33        5D+1        0.00000   0.00000   0.00000   0.00000   0.00001
  34        5D-1        0.00000   0.00000   0.00140   0.00000   0.00000
  35        5D+2        0.00000  -0.00019   0.00000  -0.00002   0.00000
  36        5D-2        0.00078   0.00000   0.00000   0.00000   0.00000
  37 3   H  1S          0.01195  -0.00145   0.00000   0.00050   0.00000
  38        2S          0.03379  -0.00356   0.00000   0.00047   0.00000
  39        3S          0.00484  -0.00371   0.00000  -0.00004   0.00000
  40        4PX         0.00016   0.00001   0.00000   0.00011   0.00000
  41        4PY        -0.00019   0.00125   0.00000  -0.00002   0.00000
  42        4PZ         0.00000   0.00000   0.00210   0.00000   0.00013
                          16        17        18        19        20
  16        5D-1        0.00398
  17        5D+2        0.00000   0.00300
  18        5D-2        0.00000   0.00000   0.00308
  19 2   N  1S          0.00000  -0.00075   0.00000   0.65335
  20        2S          0.00000  -0.00116   0.00000   0.50906   0.51542
  21        2PX         0.00000   0.00000   0.00186   0.00000   0.00000
  22        2PY         0.00000   0.00249   0.00000   0.00000   0.00000
  23        2PZ         0.00283   0.00000   0.00000   0.00000   0.00000
  24        3S          0.00000   0.00750   0.00000  -0.04342  -0.08754
  25        3PX         0.00000   0.00000   0.00722   0.00000   0.00000
  26        3PY         0.00000   0.00383   0.00000   0.00000   0.00000
  27        3PZ         0.01074   0.00000   0.00000   0.00000   0.00000
  28        4S          0.00000   0.00223   0.00000  -0.02194  -0.03844
  29        4PX         0.00000   0.00000   0.00395   0.00000   0.00000
  30        4PY         0.00000  -0.00085   0.00000   0.00000   0.00000
  31        4PZ         0.00676   0.00000   0.00000   0.00000   0.00000
  32        5D 0        0.00000  -0.00002   0.00000   0.00000   0.00000
  33        5D+1        0.00000   0.00000   0.00000   0.00000   0.00000
  34        5D-1        0.00111   0.00000   0.00000   0.00000   0.00000
  35        5D+2        0.00000   0.00019   0.00000   0.00000   0.00000
  36        5D-2        0.00000   0.00000   0.00091   0.00000   0.00000
  37 3   H  1S          0.00000   0.00160   0.00192   0.00000   0.00000
  38        2S          0.00000   0.00219   0.00238   0.00013   0.00024
  39        3S          0.00000   0.00030   0.00007  -0.00006  -0.00013
  40        4PX         0.00000   0.00004   0.00041  -0.00001  -0.00002
  41        4PY         0.00000   0.00023   0.00027  -0.00002  -0.00004
  42        4PZ         0.00021   0.00000   0.00000   0.00000   0.00000
[...]
 Electronic spatial extent (au):  <R**2>=             47.4518
 Charge=              0.0000 electrons
 Dipole moment (field-independent basis, Debye):
    X=             -1.2536    Y=              0.0852    Z=              0.0000  Tot=              1.2565
 Quadrupole moment (field-independent basis, Debye-Ang):
   XX=             -9.6537   YY=            -14.3552   ZZ=            -12.0559
   XY=             -0.3022   XZ=              0.0000   YZ=              0.0000
 Traceless Quadrupole moment (field-independent basis, Debye-Ang):
   XX=              2.3679   YY=             -2.3336   ZZ=             -0.0343
   XY=             -0.3022   XZ=              0.0000   YZ=              0.0000
 Octapole moment (field-independent basis, Debye-Ang**2):
  XXX=             -2.3197  YYY=             -3.1596  ZZZ=              0.0000  XYY=             -0.1597
  XXY=             -0.6510  XXZ=              0.0000  XZZ=             -0.2251  YZZ=             -0.7182
  YYZ=              0.0000  XYZ=              0.0000
 Hexadecapole moment (field-independent basis, Debye-Ang**3):
 XXXX=            -12.7799 YYYY=            -42.8789 ZZZZ=            -11.8923 XXXY=             -0.1360
 XXXZ=              0.0000 YYYX=              0.3647 YYYZ=              0.0000 ZZZX=              0.0000
 ZZZY=              0.0000 XXYY=             -9.0388 XXZZ=             -4.5488 YYZZ=             -8.6219
 XXYZ=              0.0000 YYXZ=              0.0000 ZZXY=              0.1277
 N-N= 2.410397129488D+01 E-N=-2.660191354880D+02  KE= 9.307225945740D+01
 Symmetry A'   KE= 9.010908343000D+01
 Symmetry A"   KE= 2.963176027399D+00
 Orbital energies and kinetic energies (alpha):
                                 1                 2
   1         O               -14.385732         22.051558
   2         O               -10.235714         15.953148
   3         O                -0.997085          2.143220
   4         O                -0.530617          1.474657
   5         O                -0.458210          1.871582
   6         O                -0.393987          1.481588
   7         O                -0.345087          1.560378
   8         V                -0.066028          1.680095
   9         V                 0.000230          1.608213
  10         V                 0.032783          0.890054
  11         V                 0.216372          0.851649
  12         V                 0.302653          0.934211
  13         V                 0.395500          1.351784
  14         V                 0.407295          1.498199
  15         V                 0.526395          1.580454
  16         V                 0.544501          1.881839
  17         V                 0.631534          1.925416
  18         V                 0.638779          1.988047
  19         V                 0.728937          3.231436
  20         V                 0.999977          1.866212
  21         V                 1.029077          3.279065
  22         V                 1.240184          2.362432
  23         V                 1.356422          2.497048
  24         V                 1.421863          2.450924
  25         V                 1.568438          2.607605
  26         V                 1.731854          2.589036
  27         V                 1.884245          3.670540
  28         V                 2.006991          3.288817
  29         V                 2.148117          4.073817
  30         V                 2.220448          3.569444
  31         V                 2.366616          4.398080
  32         V                 2.436289          4.811974
  33         V                 2.687051          4.398168
  34         V                 2.735779          5.417092
  35         V                 2.829954          5.403150
  36         V                 2.985032          6.261696
  37         V                 3.174044          6.086408
  38         V                 3.717313          8.786790
  39         V                 3.824164          8.718431
  40         V                 4.319361          9.416993
  41         V                23.918429         60.469240
  42         V                35.524288         89.002949
 Total kinetic energy from orbitals= 9.307225945740D+01
  Exact polarizability:  14.105   0.156  18.484   0.000   0.000  10.286
 Approx polarizability:  20.891   0.860  35.355   0.000   0.000  13.934
 No NMR shielding tensors so no spin-rotation constants.
 Leave Link  601 at Thu Apr 14 12:40:21 2016, MaxMem=   104857600 cpu:         0.1
 (Enter /home/projets/algogen/g09.D01/g09/l701.exe)
 Compute integral second derivatives.
 ... and contract with generalized density number  0.
 Leave Link  701 at Thu Apr 14 12:40:21 2016, MaxMem=   104857600 cpu:         0.2
 (Enter /home/projets/algogen/g09.D01/g09/l702.exe)
 L702 exits ... SP integral derivatives will be done elsewhere.
 Leave Link  702 at Thu Apr 14 12:40:21 2016, MaxMem=   104857600 cpu:         0.0
 (Enter /home/projets/algogen/g09.D01/g09/l703.exe)
 Compute integral second derivatives, UseDBF=F ICtDFT=           0.
 Integral derivatives from FoFJK, PRISM(SPDF).
 Calling FoFJK, ICntrl=    100127 FMM=F ISym2X=1 I1Cent= 0 IOpClX= 0 NMat=1 NMatS=1 NMatT=0.
 FoFJK:  IHMeth= 1 ICntrl=  100127 DoSepK=F KAlg= 0 I1Cent=   0 FoldK=F
 IRaf=         0 NMat=   1 IRICut=       1 DoRegI=T DoRafI=F ISym2E= 1.
 FoFCou: FMM=F IPFlag=           0 FMFlag=      100000 FMFlg1=         800
         NFxFlg=           0 DoJE=F BraDBF=F KetDBF=F FulRan=T
         wScrn=  0.000000 ICntrl=  100127 IOpCl=  0 I1Cent=           0 NGrid=           0
         NMat0=    1 NMatS0=      1 NMatT0=    0 NMatD0=    1 NMtDS0=    0 NMtDT0=    0
 Petite list used in FoFCou.
 Leave Link  703 at Thu Apr 14 12:40:22 2016, MaxMem=   104857600 cpu:         1.5
 (Enter /home/projets/algogen/g09.D01/g09/l716.exe)
 Dipole        =-4.93216599D-01 3.35257893D-02-3.26329762D-31
 Polarizability= 1.41046903D+01 1.56015797D-01 1.84839698D+01
                -1.82032017D-10-9.49834136D-11 1.02856084D+01
 Full mass-weighted force constant matrix:
 Low frequencies ----1130.2765  -29.0976   -0.0004   -0.0003    0.0009    9.0450
 Low frequencies ---   10.5712 2065.0977 2605.0241
 ******    1 imaginary frequencies (negative Signs) ****** 
 Diagonal vibrational polarizability:
        0.6168323       1.7928193       0.0000000
 Harmonic frequencies (cm**-1), IR intensities (KM/Mole), Raman scattering
 activities (A**4/AMU), depolarization ratios for plane and unpolarized
 incident light, reduced masses (AMU), force constants (mDyne/A),
 and normal coordinates:
                      1                      2                      3
                     A'                     A'                     A'
 Frequencies --  -1130.2764              2065.0977              2605.0241
 Red. masses --      1.1684                12.0157                 1.0594
 Frc consts  --      0.8794                30.1912                 4.2358
 IR Inten    --     84.8463                10.7867               139.7739
  Atom  AN      X      Y      Z        X      Y      Z        X      Y      Z
     1   6     0.07   0.06   0.00    -0.03   0.72   0.00     0.06   0.01   0.00
     2   7    -0.07   0.02   0.00     0.01  -0.64   0.00     0.02   0.00   0.00
     3   1     0.14  -0.98   0.00     0.10   0.25   0.00    -0.99  -0.10   0.00

 -------------------
 - Thermochemistry -
 -------------------
 Temperature   298.150 Kelvin.  Pressure   1.00000 Atm.
 Atom     1 has atomic number  6 and mass  12.00000
 Atom     2 has atomic number  7 and mass  14.00307
 Atom     3 has atomic number  1 and mass   1.00783
 Molecular mass:    27.01090 amu.
 Principal axes and moments of inertia in atomic units:
                           1         2         3
     Eigenvalues --     4.39296  32.61661  37.00957
           X           -0.03664   0.99933   0.00000
           Y            0.99933   0.03664   0.00000
           Z            0.00000   0.00000   1.00000
 This molecule is an asymmetric top.
 Rotational symmetry number  1.
 Rotational temperatures (Kelvin)     19.71653     2.65551     2.34031
 Rotational constants (GHZ):         410.82624    55.33196    48.76418
    1 imaginary frequencies ignored.
 Zero-point vibrational energy      27933.5 (Joules/Mol)
                                    6.67627 (Kcal/Mol)
 Vibrational temperatures:   2971.21  3748.04
          (Kelvin)
 
 Zero-point correction=                           0.010639 (Hartree/Particle)
 Thermal correction to Energy=                    0.013472
 Thermal correction to Enthalpy=                  0.014417
 Thermal correction to Gibbs Free Energy=        -0.010358
 Sum of electronic and zero-point Energies=            -93.364618
 Sum of electronic and thermal Energies=               -93.361785
 Sum of electronic and thermal Enthalpies=             -93.360840
 Sum of electronic and thermal Free Energies=          -93.385615
 
                     E (Thermal)             CV                S
                      KCal/Mol        Cal/Mol-Kelvin    Cal/Mol-Kelvin
 Total                    8.454              5.972             52.142
 Electronic               0.000              0.000              0.000
 Translational            0.889              2.981             35.816
 Rotational               0.889              2.981             16.324
 Vibrational              6.677              0.010              0.001
                       Q            Log10(Q)             Ln(Q)
 Total Bot       0.580965D+05          4.764150         10.969860
 Total V=0       0.454870D+10          9.657887         22.238106
 Vib (Bot)       0.127728D-04         -4.893715        -11.268196
 Vib (V=0)       0.100005D+01          0.000022          0.000050
 Electronic      0.100000D+01          0.000000          0.000000
 Translational   0.551777D+07          6.741764         15.523485
 Rotational      0.824330D+03          2.916101          6.714571
 
                                                               essai ts
                                                             IR Spectrum
 
     2                          2                                                                                                    
     6                          0                                                                                                    
     0                          6                                                                                                    
     5                          5                                                                                                    
 
     X                          X                                                                                                    
     X                          X                                                                                                    
     X                                                                                                                               
     X                                                                                                                               
     X                                                                                                                               
     X                                                                                                                               
     X                                                                                                                               
     X                                                                                                                               
     X                                                                                                                               
     X                                                                                                                               
     X                                                                                                                               
     X                                                                                                                               
     X                                                                                                                               
     X                                                                                                                               
     X                                                                                                                               
     X                                                                                                                               
     X                                                                                                                               
     X                                                                                                                               
     X                                                                                                                               
     X                                                                                                                               
 
 ***** Axes restored to original set *****
 -------------------------------------------------------------------
 Center     Atomic                   Forces (Hartrees/Bohr)
 Number     Number              X              Y              Z
 -------------------------------------------------------------------
      1        6          -0.000081413    0.000000000   -0.000021339
      2        7          -0.000015043    0.000000000   -0.000003631
      3        1           0.000096456    0.000000000    0.000024970
 -------------------------------------------------------------------
 Cartesian Forces:  Max     0.000096456 RMS     0.000043780
 Force constants in Cartesian coordinates: 
                1             2             3             4             5 
      1  0.118147D+00
      2  0.000000D+00 -0.446875D-04
      3 -0.192595D-01  0.000000D+00  0.996568D+00
      4  0.764382D-01  0.000000D+00  0.450683D-01 -0.283044D-01
      5  0.000000D+00  0.000000D+00  0.000000D+00  0.000000D+00  0.190111D-04
      6  0.113486D-02  0.000000D+00 -0.104928D+01 -0.256057D-03  0.000000D+00
      7 -0.194585D+00  0.000000D+00 -0.258088D-01 -0.481339D-01  0.000000D+00
      8  0.000000D+00  0.446717D-04  0.000000D+00  0.000000D+00 -0.190270D-04
      9  0.181246D-01  0.000000D+00  0.527083D-01 -0.448122D-01  0.000000D+00
                6             7             8             9 
      6  0.106387D+01
      7 -0.878803D-03  0.242719D+00
      8  0.000000D+00  0.000000D+00 -0.256447D-04
      9 -0.145895D-01  0.266876D-01  0.000000D+00 -0.381188D-01
 FormGI is forming the generalized inverse of G from B-inverse, IUseBI=4.
 Force constants in internal coordinates: 
                1             2             3 
      1  0.106370D+01
      2 -0.599211D-02  0.232497D+00
      3  0.315511D-01  0.132682D+00 -0.141023D+00
 Leave Link  716 at Thu Apr 14 12:40:22 2016, MaxMem=   104857600 cpu:         0.0
 (Enter /home/projets/algogen/g09.D01/g09/l103.exe)

 GradGradGradGradGradGradGradGradGradGradGradGradGradGradGradGradGradGrad
 Berny optimization.
 Red2BG is reusing G-inverse.
 Internal  Forces:  Max     0.000096789 RMS     0.000057416
 Search for a saddle point.
 Step number   1 out of a maximum of    2
 All quantities printed in internal units (Hartrees-Bohrs-Radians)
 Swapping is turned off.
 Second derivative matrix not updated -- analytic derivatives used.
 The second derivative matrix:
                          R1        R2        A1
           R1           1.06370
           R2          -0.00599   0.23250
           A1           0.03155   0.13268  -0.14102
 ITU=  0
     Eigenvalues ---   -0.18417   0.27481   1.06453
 Eigenvectors required to have negative eigenvalues:
                          A1        R2        R1
   1                   -0.95244   0.30366   0.02554
 Angle between quadratic step and forces=  10.97 degrees.
 Linear search not attempted -- option 19 set.
 Iteration  1 RMS(Cart)=  0.00021708 RMS(Int)=  0.00000001
 Iteration  2 RMS(Cart)=  0.00000001 RMS(Int)=  0.00000000
 ITry= 1 IFail=0 DXMaxC= 2.88D-04 DCOld= 1.00D+10 DXMaxT= 3.00D-01 DXLimC= 3.00D+00 Rises=F
 ClnCor:  largest displacement from symmetrization is 1.86D-15 for atom     3.
 Variable       Old X    -DE/DX   Delta X   Delta X   Delta X     New X
                                 (Linear)    (Quad)   (Total)
    R1        2.23699   0.00000   0.00000   0.00000   0.00000   2.23699
    R2        2.25068   0.00010   0.00000   0.00033   0.00033   2.25101
    A1        1.25164   0.00002   0.00000   0.00015   0.00015   1.25179
         Item               Value     Threshold  Converged?
 Maximum Force            0.000097     0.000450     YES
 RMS     Force            0.000057     0.000300     YES
 Maximum Displacement     0.000288     0.001800     YES
 RMS     Displacement     0.000217     0.001200     YES
 Predicted change in Energy=-1.772808D-08
 Optimization completed.
    -- Stationary point found.
                           ----------------------------
                           !   Optimized Parameters   !
                           ! (Angstroms and Degrees)  !
 --------------------------                            --------------------------
 ! Name  Definition              Value          Derivative Info.                !
 --------------------------------------------------------------------------------
 ! R1    R(1,2)                  1.1838         -DE/DX =    0.0                 !
 ! R2    R(1,3)                  1.191          -DE/DX =    0.0001              !
 ! A1    A(2,1,3)               71.7135         -DE/DX =    0.0                 !
 --------------------------------------------------------------------------------
 GradGradGradGradGradGradGradGradGradGradGradGradGradGradGradGradGradGrad

 Leave Link  103 at Thu Apr 14 12:40:22 2016, MaxMem=   104857600 cpu:         0.0
 (Enter /home/projets/algogen/g09.D01/g09/l9999.exe)

 Test job not archived.
 1\1\GINC-ROMEO174\Freq\RB3LYP\6-311G(d,p)\C1H1N1\ROOT\14-Apr-2016\0\\#
 P Geom=AllCheck Guess=TCheck SCRF=Check Test GenChk RB3LYP/6-311G(d,p)
  Freq\\essai ts\\0,1\C,-0.0058610007,0.,-0.0044100862\N,0.0091478207,0
 .,1.1792595009\H,1.1296474245,0.,0.3549233439\\Version=ES64L-G09RevD.0
 1\State=1-A'\HF=-93.375257\RMSD=3.064e-10\RMSF=4.378e-05\ZeroPoint=0.0
 106393\Thermal=0.0134724\Dipole=0.4927519,0.,-0.0397765\DipoleDeriv=-0
 .250647,0.,0.0137257,0.,-0.1429582,0.,0.2182945,0.,-0.1164394,-0.11718
 51,0.,0.08953,0.,-0.0878285,0.,-0.2341664,0.,-0.1761772,0.3678321,0.,-
 0.1032557,0.,0.2307867,0.,0.015872,0.,0.2926166\Polar=14.1093502,0.,10
 .2856084,0.2114856,0.,18.4793099\PG=CS [SG(C1H1N1)]\NImag=1\\0.1181472
 1,0.,-0.00004469,-0.01925950,0.,0.99656845,0.07643821,0.,0.04506830,-0
 .02830435,0.,0.00000002,0.,0.,0.00001901,0.00113486,0.,-1.04927671,-0.
 00025606,0.,1.06386619,-0.19458542,0.,-0.02580881,-0.04813386,0.,-0.00
 087880,0.24271927,0.,0.00004467,0.,0.,-0.00001903,0.,0.,-0.00002564,0.
 01812464,0.,0.05270826,-0.04481225,0.,-0.01458949,0.02668761,0.,-0.038
 11877\\0.00008141,0.,0.00002134,0.00001504,0.,0.00000363,-0.00009646,0
 .,-0.00002497\\\@


 THERE ONCE WAS A GIRL NAMED IRENE,
 WHO LIVED ON DISTILLED KEROSENE,
      BUT SHE STARTED ABSORBIN'
      A NEW HYDROCARBON,
 AND SINCE THEN HAS NEVER BENZENE.
 Job cpu time:       0 days  0 hours  0 minutes  5.1 seconds.
 File lengths (MBytes):  RWF=      5 Int=      0 D2E=      0 Chk=      1 Scr=      1
 Normal termination of Gaussian 09 at Thu Apr 14 12:40:22 2016.
************
total 296
drwxrwxr-x 2 henon henon   4096 14 avril 12:40 .
drwxrwxr-x 3 henon henon   4096 14 avril 12:40 ..
-rw-r--r-- 1 henon henon    263 14 avril 12:40 relax1.inp
-rw-rw-r-- 1 henon henon 290476 14 avril 12:40 relax1.out
Run on 1 cores
romeo174
************
