 Entering Gaussian System, Link 0=g09
 Initial command:
 /apps/gaussian/g09/l1.exe /scratch_l/henon/1Rfreq_8426/Gau-8442.inp -scrdir=/scratch_l/henon/1Rfreq_8426/
 Entering Link 1 = /apps/gaussian/g09/l1.exe PID=      8443.
  
 Copyright (c) 1988,1990,1992,1993,1995,1998,2003,2009, Gaussian, Inc.
                  All Rights Reserved.
  
 This is part of the Gaussian(R) 09 program.  It is based on
 the Gaussian(R) 03 system (copyright 2003, Gaussian, Inc.),
 the Gaussian(R) 98 system (copyright 1998, Gaussian, Inc.),
 the Gaussian(R) 94 system (copyright 1995, Gaussian, Inc.),
 the Gaussian 92(TM) system (copyright 1992, Gaussian, Inc.),
 the Gaussian 90(TM) system (copyright 1990, Gaussian, Inc.),
 the Gaussian 88(TM) system (copyright 1988, Gaussian, Inc.),
 the Gaussian 86(TM) system (copyright 1986, Carnegie Mellon
 University), and the Gaussian 82(TM) system (copyright 1983,
 Carnegie Mellon University). Gaussian is a federally registered
 trademark of Gaussian, Inc.
  
 This software contains proprietary and confidential information,
 including trade secrets, belonging to Gaussian, Inc.
  
 This software is provided under written license and may be
 used, copied, transmitted, or stored only in accord with that
 written license.
  
 The following legend is applicable only to US Government
 contracts under FAR:
  
                    RESTRICTED RIGHTS LEGEND
  
 Use, reproduction and disclosure by the US Government is
 subject to restrictions as set forth in subparagraphs (a)
 and (c) of the Commercial Computer Software - Restricted
 Rights clause in FAR 52.227-19.
  
 Gaussian, Inc.
 340 Quinnipiac St., Bldg. 40, Wallingford CT 06492
  
  
 ---------------------------------------------------------------
 Warning -- This program may not be used in any manner that
 competes with the business of Gaussian, Inc. or will provide
 assistance to any competitor of Gaussian, Inc.  The licensee
 of this program is prohibited from giving any competitor of
 Gaussian, Inc. access to this program.  By using this program,
 the user acknowledges that Gaussian, Inc. is engaged in the
 business of creating and licensing software in the field of
 computational chemistry and represents and warrants to the
 licensee that it is not a competitor of Gaussian, Inc. and that
 it will not use this program in any manner prohibited above.
 ---------------------------------------------------------------
  

 Cite this work as:
 Gaussian 09, Revision A.02,
 M. J. Frisch, G. W. Trucks, H. B. Schlegel, G. E. Scuseria, 
 M. A. Robb, J. R. Cheeseman, G. Scalmani, V. Barone, B. Mennucci, 
 G. A. Petersson, H. Nakatsuji, M. Caricato, X. Li, H. P. Hratchian, 
 A. F. Izmaylov, J. Bloino, G. Zheng, J. L. Sonnenberg, M. Hada, 
 M. Ehara, K. Toyota, R. Fukuda, J. Hasegawa, M. Ishida, T. Nakajima, 
 Y. Honda, O. Kitao, H. Nakai, T. Vreven, J. A. Montgomery, Jr., 
 J. E. Peralta, F. Ogliaro, M. Bearpark, J. J. Heyd, E. Brothers, 
 K. N. Kudin, V. N. Staroverov, R. Kobayashi, J. Normand, 
 K. Raghavachari, A. Rendell, J. C. Burant, S. S. Iyengar, J. Tomasi, 
 M. Cossi, N. Rega, J. M. Millam, M. Klene, J. E. Knox, J. B. Cross, 
 V. Bakken, C. Adamo, J. Jaramillo, R. Gomperts, R. E. Stratmann, 
 O. Yazyev, A. J. Austin, R. Cammi, C. Pomelli, J. W. Ochterski, 
 R. L. Martin, K. Morokuma, V. G. Zakrzewski, G. A. Voth, 
 P. Salvador, J. J. Dannenberg, S. Dapprich, A. D. Daniels, 
 O. Farkas, J. B. Foresman, J. V. Ortiz, J. Cioslowski, 
 and D. J. Fox, Gaussian, Inc., Wallingford CT, 2009.
 
 ******************************************
 Gaussian 09:  AM64L-G09RevA.02 11-Jun-2009
                25-Apr-2014 
 ******************************************
 %NPROC=12
 Will use up to   12 processors via shared memory.
 %MEM=500MB
 --------------------------------------------------
 #P M06 6-311G** FREQ # GFINPUT IOP(6/7=3) POP=FULL
 --------------------------------------------------
 1/10=4,30=1,38=1/1,3;
 2/12=2,17=6,18=5,40=1/2;
 3/5=4,6=6,7=101,11=2,16=1,24=10,25=1,30=1,71=2,74=-54/1,2,3;
 4//1;
 5/5=2,38=5,98=1/2;
 8/6=4,10=90,11=11/1;
 11/6=1,8=1,9=11,15=111,16=1/1,2,10;
 10/6=1/2;
 6/7=3,18=1,28=1/1;
 7/8=1,10=1,25=1/1,2,3,16;
 1/10=4,30=1/3;
 99//99;
 Leave Link    1 at Fri Apr 25 17:09:41 2014, MaxMem=   65536000 cpu:       0.3
 (Enter /apps/gaussian/g09/l101.exe)
 -----------------------------------
 reverse IRC, from TS reverse1 freq1
 -----------------------------------
 Symbolic Z-matrix:
 Charge =  0 Multiplicity = 2
 7                    -0.11373  -0.06983   0.09331 
 7                    -0.23212  -0.01945   1.22255 
 7                     0.29498  -0.00023  -1.08153 
 1                    -0.47896  -0.01609  -1.74205 
 1                     1.18571   1.25964  -1.51384 
 
 NAtoms=      5 NQM=      5 NQMF=      0 NMic=      0 NMicF=      0 NTot=      5.
                    Isotopes and Nuclear Properties:
 (Nuclear quadrupole moments (NQMom) in fm**2, nuclear magnetic moments (NMagM)
  in nuclear magnetons)

  Atom         1           2           3           4           5
 IAtWgt=          14          14          14           1           1
 AtmWgt=  14.0030740  14.0030740  14.0030740   1.0078250   1.0078250
 NucSpn=           2           2           2           1           1
 AtZEff=   0.0000000   0.0000000   0.0000000   0.0000000   0.0000000
 NQMom=    2.0440000   2.0440000   2.0440000   0.0000000   0.0000000
 NMagM=    0.4037610   0.4037610   0.4037610   2.7928460   2.7928460
 Leave Link  101 at Fri Apr 25 17:09:41 2014, MaxMem=   65536000 cpu:       0.5
 (Enter /apps/gaussian/g09/l103.exe)

 GradGradGradGradGradGradGradGradGradGradGradGradGradGradGradGradGradGrad
 Berny optimization.
 Initialization pass.
 Trust Radius=3.00D-01 FncErr=1.00D-07 GrdErr=1.00D-07
 Number of steps in this run=   2 maximum allowed number of steps=   2.
 GradGradGradGradGradGradGradGradGradGradGradGradGradGradGradGradGradGrad

 Leave Link  103 at Fri Apr 25 17:09:41 2014, MaxMem=   65536000 cpu:       0.1
 (Enter /apps/gaussian/g09/l202.exe)
                          Input orientation:                          
 ---------------------------------------------------------------------
 Center     Atomic      Atomic             Coordinates (Angstroms)
 Number     Number       Type             X           Y           Z
 ---------------------------------------------------------------------
      1          7           0       -0.113727   -0.069829    0.093311
      2          7           0       -0.232122   -0.019447    1.222548
      3          7           0        0.294980   -0.000227   -1.081527
      4          1           0       -0.478958   -0.016086   -1.742048
      5          1           0        1.185711    1.259635   -1.513837
 ---------------------------------------------------------------------
                    Distance matrix (angstroms):
                    1          2          3          4          5
     1  N    0.000000
     2  N    1.136544   0.000000
     3  N    1.245845   2.363677   0.000000
     4  H    1.872118   2.974856   1.017605   0.000000
     5  H    2.457425   3.336780   1.602356   2.109660   0.000000
 Stoichiometry    H2N3(2)
 Framework group  C1[X(H2N3)]
 Deg. of freedom     9
 Full point group                 C1      NOp   1
 Largest Abelian subgroup         C1      NOp   1
 Largest concise Abelian subgroup C1      NOp   1
                         Standard orientation:                         
 ---------------------------------------------------------------------
 Center     Atomic      Atomic             Coordinates (Angstroms)
 Number     Number       Type             X           Y           Z
 ---------------------------------------------------------------------
      1          7           0        0.197564   -0.116955    0.004004
      2          7           0        1.313100    0.099933    0.020504
      3          7           0       -1.040786   -0.061942   -0.120861
      4          1           0       -1.500518   -0.761619    0.457601
      5          1           0       -1.788625    1.314365    0.216871
 ---------------------------------------------------------------------
 Rotational constants (GHZ):    163.0925306     11.0814338     10.5632603
 Leave Link  202 at Fri Apr 25 17:09:41 2014, MaxMem=   65536000 cpu:       0.0
 (Enter /apps/gaussian/g09/l301.exe)
 Standard basis: 6-311G(d,p) (5D, 7F)
 Ernie: Thresh=  0.10000D-02 Tol=  0.10000D-05 Strict=F.
 AO basis set in the form of general basis input (Overlap normalization):
      1 0
 S   6 1.00       0.000000000000
      0.6293480000D+04  0.1969788147D-02
      0.9490440000D+03  0.1496128592D-01
      0.2187760000D+03  0.7350053084D-01
      0.6369160000D+02  0.2489367658D+00
      0.1882820000D+02  0.6024594331D+00
      0.2720230000D+01  0.2562017589D+00
 SP   3 1.00       0.000000000000
      0.3063310000D+02  0.1119060795D+00  0.3831191864D-01
      0.7026140000D+01  0.9216666549D+00  0.2374031155D+00
      0.2112050000D+01 -0.2569191826D-02  0.8175923978D+00
 SP   1 1.00       0.000000000000
      0.6840090000D+00  0.1000000000D+01  0.1000000000D+01
 SP   1 1.00       0.000000000000
      0.2008780000D+00  0.1000000000D+01  0.1000000000D+01
 D   1 1.00       0.000000000000
      0.9130000000D+00  0.1000000000D+01
 ****
      2 0
 S   6 1.00       0.000000000000
      0.6293480000D+04  0.1969788147D-02
      0.9490440000D+03  0.1496128592D-01
      0.2187760000D+03  0.7350053084D-01
      0.6369160000D+02  0.2489367658D+00
      0.1882820000D+02  0.6024594331D+00
      0.2720230000D+01  0.2562017589D+00
 SP   3 1.00       0.000000000000
      0.3063310000D+02  0.1119060795D+00  0.3831191864D-01
      0.7026140000D+01  0.9216666549D+00  0.2374031155D+00
      0.2112050000D+01 -0.2569191826D-02  0.8175923978D+00
 SP   1 1.00       0.000000000000
      0.6840090000D+00  0.1000000000D+01  0.1000000000D+01
 SP   1 1.00       0.000000000000
      0.2008780000D+00  0.1000000000D+01  0.1000000000D+01
 D   1 1.00       0.000000000000
      0.9130000000D+00  0.1000000000D+01
 ****
      3 0
 S   6 1.00       0.000000000000
      0.6293480000D+04  0.1969788147D-02
      0.9490440000D+03  0.1496128592D-01
      0.2187760000D+03  0.7350053084D-01
      0.6369160000D+02  0.2489367658D+00
      0.1882820000D+02  0.6024594331D+00
      0.2720230000D+01  0.2562017589D+00
 SP   3 1.00       0.000000000000
      0.3063310000D+02  0.1119060795D+00  0.3831191864D-01
      0.7026140000D+01  0.9216666549D+00  0.2374031155D+00
      0.2112050000D+01 -0.2569191826D-02  0.8175923978D+00
 SP   1 1.00       0.000000000000
      0.6840090000D+00  0.1000000000D+01  0.1000000000D+01
 SP   1 1.00       0.000000000000
      0.2008780000D+00  0.1000000000D+01  0.1000000000D+01
 D   1 1.00       0.000000000000
      0.9130000000D+00  0.1000000000D+01
 ****
      4 0
 S   3 1.00       0.000000000000
      0.3386500000D+02  0.2549381454D-01
      0.5094790000D+01  0.1903731086D+00
      0.1158790000D+01  0.8521614860D+00
 S   1 1.00       0.000000000000
      0.3258400000D+00  0.1000000000D+01
 S   1 1.00       0.000000000000
      0.1027410000D+00  0.1000000000D+01
 P   1 1.00       0.000000000000
      0.7500000000D+00  0.1000000000D+01
 ****
      5 0
 S   3 1.00       0.000000000000
      0.3386500000D+02  0.2549381454D-01
      0.5094790000D+01  0.1903731086D+00
      0.1158790000D+01  0.8521614860D+00
 S   1 1.00       0.000000000000
      0.3258400000D+00  0.1000000000D+01
 S   1 1.00       0.000000000000
      0.1027410000D+00  0.1000000000D+01
 P   1 1.00       0.000000000000
      0.7500000000D+00  0.1000000000D+01
 ****

 There are    66 symmetry adapted basis functions of A   symmetry.
 Integral buffers will be    131072 words long.
 Raffenetti 2 integral format.
 Two-electron integral symmetry is turned on.
    66 basis functions,   112 primitive gaussians,    69 cartesian basis functions
    12 alpha electrons       11 beta electrons
       nuclear repulsion energy        66.6415399773 Hartrees.
 IExCor= 4235 DFT=T Ex+Corr=M06 ExCW=0 ScaHFX=  0.270000
 ScaDFX=  1.000000  1.000000  1.000000  1.000000 ScalE2=  1.000000  1.000000
 IRadAn=      0 IRanWt=     -1 IRanGd=            0 ICorTp=0
 NAtoms=    5 NActive=    5 NUniq=    5 SFac= 7.50D-01 NAtFMM=   80 NAOKFM=F Big=F
 Leave Link  301 at Fri Apr 25 17:09:41 2014, MaxMem=   65536000 cpu:       0.4
 (Enter /apps/gaussian/g09/l302.exe)
 NPDir=0 NMtPBC=     1 NCelOv=     1 NCel=       1 NClECP=     1 NCelD=      1
         NCelK=      1 NCelE2=     1 NClLst=     1 CellRange=     0.0.
 One-electron integrals computed using PRISM.
 NBasis=    66 RedAO= T  NBF=    66
 NBsUse=    66 1.00D-06 NBFU=    66
 Precomputing XC quadrature grid using
 IXCGrd= 2 IRadAn=           0 IRanWt=          -1 IRanGd=           0 AccXCQ= 1.00D-10.
 NRdTot=     311 NPtTot=       39452 NUsed=       41707 NTot=       41739
 NSgBfM=    69    69    69    69    69 NAtAll=     5     5.
 Leave Link  302 at Fri Apr 25 17:09:41 2014, MaxMem=   65536000 cpu:       2.5
 (Enter /apps/gaussian/g09/l303.exe)
 DipDrv:  MaxL=1.
 Leave Link  303 at Fri Apr 25 17:09:41 2014, MaxMem=   65536000 cpu:       0.1
 (Enter /apps/gaussian/g09/l401.exe)
 Harris functional with IExCor= 1009 diagonalized for initial guess.
 ExpMin= 1.03D-01 ExpMax= 6.29D+03 ExpMxC= 9.49D+02 IAcc=1 IRadAn=         1 AccDes= 0.00D+00
 HarFok:  IExCor= 1009 AccDes= 0.00D+00 IRadAn=         1 IDoV= 1
 ScaDFX=  1.000000  1.000000  1.000000  1.000000
 FoFCou: FMM=F IPFlag=           0 FMFlag=      100000 FMFlg1=           0
         NFxFlg=           0 DoJE=T BraDBF=F KetDBF=T FulRan=T
         Omega=  0.000000  0.000000  1.000000  0.000000  0.000000 ICntrl=     500 IOpCl=  0
         NMat0=    1 NMatS0=    1 NMatT0=    0 NMatD0=    1 NMtDS0=    0 NMtDT0=    0
         I1Cent=           4 NGrid=           0.
 Petite list used in FoFCou.
 Harris En= -165.172328980984    
 Initial guess orbital symmetries:
 Alpha Orbitals:
       Occupied  (A) (A) (A) (A) (A) (A) (A) (A) (A) (A) (A) (A)
       Virtual   (A) (A) (A) (A) (A) (A) (A) (A) (A) (A) (A) (A)
                 (A) (A) (A) (A) (A) (A) (A) (A) (A) (A) (A) (A)
                 (A) (A) (A) (A) (A) (A) (A) (A) (A) (A) (A) (A)
                 (A) (A) (A) (A) (A) (A) (A) (A) (A) (A) (A) (A)
                 (A) (A) (A) (A) (A) (A)
 Beta  Orbitals:
       Occupied  (A) (A) (A) (A) (A) (A) (A) (A) (A) (A) (A)
       Virtual   (A) (A) (A) (A) (A) (A) (A) (A) (A) (A) (A) (A)
                 (A) (A) (A) (A) (A) (A) (A) (A) (A) (A) (A) (A)
                 (A) (A) (A) (A) (A) (A) (A) (A) (A) (A) (A) (A)
                 (A) (A) (A) (A) (A) (A) (A) (A) (A) (A) (A) (A)
                 (A) (A) (A) (A) (A) (A) (A)
 The electronic state of the initial guess is 2-A.
 Initial guess <Sx>= 0.0000 <Sy>= 0.0000 <Sz>= 0.5000 <S**2>= 0.7500 S= 0.5000
 Leave Link  401 at Fri Apr 25 17:09:41 2014, MaxMem=   65536000 cpu:       1.6
 (Enter /apps/gaussian/g09/l502.exe)
 UHF open shell SCF:
 Requested convergence on RMS density matrix=1.00D-08 within 128 cycles.
 Requested convergence on MAX density matrix=1.00D-06.
 Requested convergence on             energy=1.00D-06.
 No special actions if energy rises.
 Using DIIS extrapolation, IDIIS=  1040.
 Integral symmetry usage will be decided dynamically.
        41649 words used for storage of precomputed grid.
 Keep R1 and R2 ints in memory in canonical form, NReq=6799222.
 IEnd=       75419 IEndB=       75419 NGot=    65536000 MDV=    59647384
 LenX=    59647384 LenY=    59642182
 Symmetry not used in FoFDir.
 MinBra= 0 MaxBra= 2 Meth= 1.
 IRaf=       0 NMat=   1 IRICut=       1 DoRegI=T DoRafI=F ISym2E= 0 JSym2E=0.
 Integral accuracy reduced to 1.0D-05 until final iterations.

 Cycle   1  Pass 0  IDiag  1:
 E= -165.184002320549    
 DIIS: error= 2.88D-02 at cycle   1 NSaved=   1.
 NSaved= 1 IEnMin= 1 EnMin= -165.184002320549     IErMin= 1 ErrMin= 2.88D-02
 ErrMax= 2.88D-02 EMaxC= 1.00D-01 BMatC= 1.88D-01 BMatP= 1.88D-01
 IDIUse=3 WtCom= 7.12D-01 WtEn= 2.88D-01
 Coeff-Com:  0.100D+01
 Coeff-En:   0.100D+01
 Coeff:      0.100D+01
 Gap=     0.173 Goal=   None    Shift=    0.000
 Gap=     0.205 Goal=   None    Shift=    0.000
 GapD=    0.173 DampG=1.000 DampE=0.500 DampFc=0.5000 IDamp=-1.
 Damping current iteration by 5.00D-01
 RMSDP=6.11D-03 MaxDP=1.47D-01              OVMax= 1.41D-01

 Cycle   2  Pass 0  IDiag  1:
 E= -165.193024030220     Delta-E=       -0.009021709672 Rises=F Damp=T
 DIIS: error= 1.31D-02 at cycle   2 NSaved=   2.
 NSaved= 2 IEnMin= 2 EnMin= -165.193024030220     IErMin= 2 ErrMin= 1.31D-02
 ErrMax= 1.31D-02 EMaxC= 1.00D-01 BMatC= 4.12D-02 BMatP= 1.88D-01
 IDIUse=3 WtCom= 8.69D-01 WtEn= 1.31D-01
 Coeff-Com:  0.254D+00 0.746D+00
 Coeff-En:   0.375D+00 0.625D+00
 Coeff:      0.270D+00 0.730D+00
 Gap=     0.159 Goal=   None    Shift=    0.000
 Gap=     0.231 Goal=   None    Shift=    0.000
 RMSDP=1.71D-03 MaxDP=1.79D-02 DE=-9.02D-03 OVMax= 1.02D-01

 Cycle   3  Pass 0  IDiag  1:
 E= -165.215888202027     Delta-E=       -0.022864171807 Rises=F Damp=F
 DIIS: error= 1.70D-02 at cycle   3 NSaved=   3.
 NSaved= 3 IEnMin= 3 EnMin= -165.215888202027     IErMin= 2 ErrMin= 1.31D-02
 ErrMax= 1.70D-02 EMaxC= 1.00D-01 BMatC= 3.58D-02 BMatP= 4.12D-02
 IDIUse=3 WtCom= 8.30D-01 WtEn= 1.70D-01
 Coeff-Com:  0.988D-01 0.463D+00 0.438D+00
 Coeff-En:   0.000D+00 0.000D+00 0.100D+01
 Coeff:      0.821D-01 0.385D+00 0.533D+00
 Gap=     0.158 Goal=   None    Shift=    0.000
 Gap=     0.250 Goal=   None    Shift=    0.000
 RMSDP=1.64D-03 MaxDP=2.17D-02 DE=-2.29D-02 OVMax= 6.00D-02

 Cycle   4  Pass 0  IDiag  1:
 E= -165.218189149543     Delta-E=       -0.002300947516 Rises=F Damp=F
 DIIS: error= 1.55D-02 at cycle   4 NSaved=   4.
 NSaved= 4 IEnMin= 4 EnMin= -165.218189149543     IErMin= 2 ErrMin= 1.31D-02
 ErrMax= 1.55D-02 EMaxC= 1.00D-01 BMatC= 2.59D-02 BMatP= 3.58D-02
 IDIUse=3 WtCom= 8.45D-01 WtEn= 1.55D-01
 Coeff-Com:  0.210D-01 0.100D+00 0.436D+00 0.443D+00
 Coeff-En:   0.000D+00 0.000D+00 0.438D+00 0.562D+00
 Coeff:      0.177D-01 0.848D-01 0.436D+00 0.461D+00
 Gap=     0.157 Goal=   None    Shift=    0.000
 Gap=     0.247 Goal=   None    Shift=    0.000
 RMSDP=8.72D-04 MaxDP=9.81D-03 DE=-2.30D-03 OVMax= 3.30D-02

 Cycle   5  Pass 0  IDiag  1:
 E= -165.223735982352     Delta-E=       -0.005546832809 Rises=F Damp=F
 DIIS: error= 1.56D-03 at cycle   5 NSaved=   5.
 NSaved= 5 IEnMin= 5 EnMin= -165.223735982352     IErMin= 5 ErrMin= 1.56D-03
 ErrMax= 1.56D-03 EMaxC= 1.00D-01 BMatC= 6.24D-04 BMatP= 2.59D-02
 IDIUse=3 WtCom= 9.84D-01 WtEn= 1.56D-02
 Coeff-Com: -0.247D-02-0.655D-02 0.165D+00 0.229D+00 0.615D+00
 Coeff-En:   0.000D+00 0.000D+00 0.000D+00 0.000D+00 0.100D+01
 Coeff:     -0.243D-02-0.645D-02 0.163D+00 0.226D+00 0.621D+00
 Gap=     0.161 Goal=   None    Shift=    0.000
 Gap=     0.247 Goal=   None    Shift=    0.000
 RMSDP=3.13D-04 MaxDP=5.38D-03 DE=-5.55D-03 OVMax= 1.83D-02

 Cycle   6  Pass 0  IDiag  1:
 E= -165.223942432520     Delta-E=       -0.000206450168 Rises=F Damp=F
 DIIS: error= 9.36D-04 at cycle   6 NSaved=   6.
 NSaved= 6 IEnMin= 6 EnMin= -165.223942432520     IErMin= 6 ErrMin= 9.36D-04
 ErrMax= 9.36D-04 EMaxC= 1.00D-01 BMatC= 1.26D-04 BMatP= 6.24D-04
 IDIUse=3 WtCom= 9.91D-01 WtEn= 9.36D-03
 Coeff-Com: -0.949D-02-0.113D-01-0.685D-01-0.886D-01 0.207D+00 0.971D+00
 Coeff-En:   0.000D+00 0.000D+00 0.000D+00 0.000D+00 0.000D+00 0.100D+01
 Coeff:     -0.941D-02-0.112D-01-0.678D-01-0.878D-01 0.205D+00 0.971D+00
 Gap=     0.162 Goal=   None    Shift=    0.000
 Gap=     0.249 Goal=   None    Shift=    0.000
 RMSDP=1.43D-04 MaxDP=2.89D-03 DE=-2.06D-04 OVMax= 6.16D-03

 Cycle   7  Pass 0  IDiag  1:
 E= -165.224010238364     Delta-E=       -0.000067805844 Rises=F Damp=F
 DIIS: error= 2.01D-04 at cycle   7 NSaved=   7.
 NSaved= 7 IEnMin= 7 EnMin= -165.224010238364     IErMin= 7 ErrMin= 2.01D-04
 ErrMax= 2.01D-04 EMaxC= 1.00D-01 BMatC= 6.89D-06 BMatP= 1.26D-04
 IDIUse=3 WtCom= 9.98D-01 WtEn= 2.01D-03
 Coeff-Com: -0.145D-02 0.186D-02-0.325D-01-0.435D-01-0.985D-01 0.113D+00
 Coeff-Com:  0.106D+01
 Coeff-En:   0.000D+00 0.000D+00 0.000D+00 0.000D+00 0.000D+00 0.000D+00
 Coeff-En:   0.100D+01
 Coeff:     -0.144D-02 0.186D-02-0.325D-01-0.434D-01-0.983D-01 0.112D+00
 Coeff:      0.106D+01
 Gap=     0.162 Goal=   None    Shift=    0.000
 Gap=     0.249 Goal=   None    Shift=    0.000
 RMSDP=7.58D-05 MaxDP=1.41D-03 DE=-6.78D-05 OVMax= 4.07D-03

 Cycle   8  Pass 0  IDiag  1:
 E= -165.224018156963     Delta-E=       -0.000007918600 Rises=F Damp=F
 DIIS: error= 9.22D-05 at cycle   8 NSaved=   8.
 NSaved= 8 IEnMin= 8 EnMin= -165.224018156963     IErMin= 8 ErrMin= 9.22D-05
 ErrMax= 9.22D-05 EMaxC= 1.00D-01 BMatC= 4.91D-07 BMatP= 6.89D-06
 IDIUse=1 WtCom= 1.00D+00 WtEn= 0.00D+00
 Coeff-Com:  0.641D-03 0.483D-03 0.233D-02 0.120D-02-0.186D-01-0.580D-01
 Coeff-Com:  0.684D-01 0.100D+01
 Coeff:      0.641D-03 0.483D-03 0.233D-02 0.120D-02-0.186D-01-0.580D-01
 Coeff:      0.684D-01 0.100D+01
 Gap=     0.162 Goal=   None    Shift=    0.000
 Gap=     0.250 Goal=   None    Shift=    0.000
 RMSDP=1.52D-05 MaxDP=1.93D-04 DE=-7.92D-06 OVMax= 6.44D-04

 Cycle   9  Pass 0  IDiag  1:
 E= -165.224018644281     Delta-E=       -0.000000487318 Rises=F Damp=F
 DIIS: error= 3.36D-05 at cycle   9 NSaved=   9.
 NSaved= 9 IEnMin= 9 EnMin= -165.224018644281     IErMin= 9 ErrMin= 3.36D-05
 ErrMax= 3.36D-05 EMaxC= 1.00D-01 BMatC= 5.72D-08 BMatP= 4.91D-07
 IDIUse=1 WtCom= 1.00D+00 WtEn= 0.00D+00
 Coeff-Com:  0.137D-03-0.819D-04 0.355D-02 0.448D-02 0.112D-01-0.159D-01
 Coeff-Com: -0.105D+00 0.597D-02 0.110D+01
 Coeff:      0.137D-03-0.819D-04 0.355D-02 0.448D-02 0.112D-01-0.159D-01
 Coeff:     -0.105D+00 0.597D-02 0.110D+01
 Gap=     0.162 Goal=   None    Shift=    0.000
 Gap=     0.250 Goal=   None    Shift=    0.000
 RMSDP=6.08D-06 MaxDP=8.48D-05 DE=-4.87D-07 OVMax= 2.96D-04

 Initial convergence to 1.0D-05 achieved.  Increase integral accuracy.
 Cycle  10  Pass 1  IDiag  1:
 E= -165.224005106514     Delta-E=        0.000013537767 Rises=F Damp=F
 DIIS: error= 2.54D-04 at cycle   1 NSaved=   1.
 NSaved= 1 IEnMin= 1 EnMin= -165.224005106514     IErMin= 1 ErrMin= 2.54D-04
 ErrMax= 2.54D-04 EMaxC= 1.00D-01 BMatC= 2.22D-05 BMatP= 2.22D-05
 IDIUse=3 WtCom= 9.97D-01 WtEn= 2.54D-03
 Coeff-Com:  0.100D+01
 Coeff-En:   0.100D+01
 Coeff:      0.100D+01
 Gap=     0.162 Goal=   None    Shift=    0.000
 Gap=     0.250 Goal=   None    Shift=    0.000
 RMSDP=6.08D-06 MaxDP=8.48D-05 DE= 1.35D-05 OVMax= 6.92D-04

 Cycle  11  Pass 1  IDiag  1:
 E= -165.224009475137     Delta-E=       -0.000004368623 Rises=F Damp=F
 DIIS: error= 2.59D-05 at cycle   2 NSaved=   2.
 NSaved= 2 IEnMin= 2 EnMin= -165.224009475137     IErMin= 2 ErrMin= 2.59D-05
 ErrMax= 2.59D-05 EMaxC= 1.00D-01 BMatC= 1.53D-07 BMatP= 2.22D-05
 IDIUse=1 WtCom= 1.00D+00 WtEn= 0.00D+00
 Coeff-Com:  0.101D-01 0.990D+00
 Coeff:      0.101D-01 0.990D+00
 Gap=     0.162 Goal=   None    Shift=    0.000
 Gap=     0.250 Goal=   None    Shift=    0.000
 RMSDP=7.24D-06 MaxDP=1.44D-04 DE=-4.37D-06 OVMax= 1.56D-04

 Cycle  12  Pass 1  IDiag  1:
 E= -165.224009476490     Delta-E=       -0.000000001353 Rises=F Damp=F
 DIIS: error= 2.73D-05 at cycle   3 NSaved=   3.
 NSaved= 3 IEnMin= 3 EnMin= -165.224009476490     IErMin= 2 ErrMin= 2.59D-05
 ErrMax= 2.73D-05 EMaxC= 1.00D-01 BMatC= 1.95D-07 BMatP= 1.53D-07
 IDIUse=1 WtCom= 1.00D+00 WtEn= 0.00D+00
 Coeff-Com: -0.844D-03 0.536D+00 0.465D+00
 Coeff:     -0.844D-03 0.536D+00 0.465D+00
 Gap=     0.162 Goal=   None    Shift=    0.000
 Gap=     0.250 Goal=   None    Shift=    0.000
 RMSDP=3.52D-06 MaxDP=4.28D-05 DE=-1.35D-09 OVMax= 1.73D-04

 Cycle  13  Pass 1  IDiag  1:
 E= -165.224009515602     Delta-E=       -0.000000039112 Rises=F Damp=F
 DIIS: error= 1.04D-05 at cycle   4 NSaved=   4.
 NSaved= 4 IEnMin= 4 EnMin= -165.224009515602     IErMin= 4 ErrMin= 1.04D-05
 ErrMax= 1.04D-05 EMaxC= 1.00D-01 BMatC= 2.37D-08 BMatP= 1.53D-07
 IDIUse=1 WtCom= 1.00D+00 WtEn= 0.00D+00
 Coeff-Com: -0.260D-02 0.841D-01 0.259D+00 0.660D+00
 Coeff:     -0.260D-02 0.841D-01 0.259D+00 0.660D+00
 Gap=     0.162 Goal=   None    Shift=    0.000
 Gap=     0.250 Goal=   None    Shift=    0.000
 RMSDP=9.32D-07 MaxDP=1.65D-05 DE=-3.91D-08 OVMax= 4.17D-05

 Cycle  14  Pass 1  IDiag  1:
 E= -165.224009519358     Delta-E=       -0.000000003756 Rises=F Damp=F
 DIIS: error= 7.48D-06 at cycle   5 NSaved=   5.
 NSaved= 5 IEnMin= 5 EnMin= -165.224009519358     IErMin= 5 ErrMin= 7.48D-06
 ErrMax= 7.48D-06 EMaxC= 1.00D-01 BMatC= 6.84D-09 BMatP= 2.37D-08
 IDIUse=1 WtCom= 1.00D+00 WtEn= 0.00D+00
 Coeff-Com: -0.161D-02 0.193D-02 0.136D+00 0.417D+00 0.447D+00
 Coeff:     -0.161D-02 0.193D-02 0.136D+00 0.417D+00 0.447D+00
 Gap=     0.162 Goal=   None    Shift=    0.000
 Gap=     0.250 Goal=   None    Shift=    0.000
 RMSDP=5.90D-07 MaxDP=6.69D-06 DE=-3.76D-09 OVMax= 2.32D-05

 Cycle  15  Pass 1  IDiag  1:
 E= -165.224009520456     Delta-E=       -0.000000001098 Rises=F Damp=F
 DIIS: error= 5.38D-06 at cycle   6 NSaved=   6.
 NSaved= 6 IEnMin= 6 EnMin= -165.224009520456     IErMin= 6 ErrMin= 5.38D-06
 ErrMax= 5.38D-06 EMaxC= 1.00D-01 BMatC= 2.11D-09 BMatP= 6.84D-09
 IDIUse=1 WtCom= 1.00D+00 WtEn= 0.00D+00
 Coeff-Com: -0.708D-03-0.141D-01 0.484D-01 0.148D+00 0.352D+00 0.467D+00
 Coeff:     -0.708D-03-0.141D-01 0.484D-01 0.148D+00 0.352D+00 0.467D+00
 Gap=     0.162 Goal=   None    Shift=    0.000
 Gap=     0.250 Goal=   None    Shift=    0.000
 RMSDP=2.83D-07 MaxDP=4.12D-06 DE=-1.10D-09 OVMax= 1.37D-05

 Cycle  16  Pass 1  IDiag  1:
 E= -165.224009521007     Delta-E=       -0.000000000550 Rises=F Damp=F
 DIIS: error= 9.95D-07 at cycle   7 NSaved=   7.
 NSaved= 7 IEnMin= 7 EnMin= -165.224009521007     IErMin= 7 ErrMin= 9.95D-07
 ErrMax= 9.95D-07 EMaxC= 1.00D-01 BMatC= 1.53D-10 BMatP= 2.11D-09
 IDIUse=1 WtCom= 1.00D+00 WtEn= 0.00D+00
 Coeff-Com:  0.240D-03-0.920D-02-0.156D-01-0.746D-01 0.139D-01 0.184D+00
 Coeff-Com:  0.902D+00
 Coeff:      0.240D-03-0.920D-02-0.156D-01-0.746D-01 0.139D-01 0.184D+00
 Coeff:      0.902D+00
 Gap=     0.162 Goal=   None    Shift=    0.000
 Gap=     0.250 Goal=   None    Shift=    0.000
 RMSDP=2.05D-07 MaxDP=2.33D-06 DE=-5.50D-10 OVMax= 1.01D-05

 Cycle  17  Pass 1  IDiag  1:
 E= -165.224009521111     Delta-E=       -0.000000000104 Rises=F Damp=F
 DIIS: error= 4.22D-07 at cycle   8 NSaved=   8.
 NSaved= 8 IEnMin= 8 EnMin= -165.224009521111     IErMin= 8 ErrMin= 4.22D-07
 ErrMax= 4.22D-07 EMaxC= 1.00D-01 BMatC= 2.00D-11 BMatP= 1.53D-10
 IDIUse=1 WtCom= 1.00D+00 WtEn= 0.00D+00
 Coeff-Com:  0.228D-03 0.226D-02-0.110D-01-0.515D-01-0.911D-01-0.927D-01
 Coeff-Com:  0.122D+00 0.112D+01
 Coeff:      0.228D-03 0.226D-02-0.110D-01-0.515D-01-0.911D-01-0.927D-01
 Coeff:      0.122D+00 0.112D+01
 Gap=     0.162 Goal=   None    Shift=    0.000
 Gap=     0.250 Goal=   None    Shift=    0.000
 RMSDP=1.12D-07 MaxDP=1.64D-06 DE=-1.04D-10 OVMax= 5.47D-06

 Cycle  18  Pass 1  IDiag  1:
 E= -165.224009521135     Delta-E=       -0.000000000023 Rises=F Damp=F
 DIIS: error= 9.41D-08 at cycle   9 NSaved=   9.
 NSaved= 9 IEnMin= 9 EnMin= -165.224009521135     IErMin= 9 ErrMin= 9.41D-08
 ErrMax= 9.41D-08 EMaxC= 1.00D-01 BMatC= 1.16D-12 BMatP= 2.00D-11
 IDIUse=1 WtCom= 1.00D+00 WtEn= 0.00D+00
 Coeff-Com:  0.230D-05 0.903D-03-0.111D-03 0.146D-02-0.795D-02-0.262D-01
 Coeff-Com: -0.759D-01 0.112D+00 0.996D+00
 Coeff:      0.230D-05 0.903D-03-0.111D-03 0.146D-02-0.795D-02-0.262D-01
 Coeff:     -0.759D-01 0.112D+00 0.996D+00
 Gap=     0.162 Goal=   None    Shift=    0.000
 Gap=     0.250 Goal=   None    Shift=    0.000
 RMSDP=2.29D-08 MaxDP=3.53D-07 DE=-2.34D-11 OVMax= 1.11D-06

 Cycle  19  Pass 1  IDiag  1:
 E= -165.224009521136     Delta-E=       -0.000000000002 Rises=F Damp=F
 DIIS: error= 3.24D-08 at cycle  10 NSaved=  10.
 NSaved=10 IEnMin=10 EnMin= -165.224009521136     IErMin=10 ErrMin= 3.24D-08
 ErrMax= 3.24D-08 EMaxC= 1.00D-01 BMatC= 1.91D-13 BMatP= 1.16D-12
 IDIUse=1 WtCom= 1.00D+00 WtEn= 0.00D+00
 Coeff-Com: -0.221D-04-0.207D-03 0.847D-03 0.587D-02 0.950D-02 0.854D-02
 Coeff-Com: -0.109D-01-0.111D+00-0.617D-01 0.116D+01
 Coeff:     -0.221D-04-0.207D-03 0.847D-03 0.587D-02 0.950D-02 0.854D-02
 Coeff:     -0.109D-01-0.111D+00-0.617D-01 0.116D+01
 Gap=     0.162 Goal=   None    Shift=    0.000
 Gap=     0.250 Goal=   None    Shift=    0.000
 RMSDP=9.18D-09 MaxDP=1.12D-07 DE=-1.76D-12 OVMax= 3.82D-07

 SCF Done:  E(UM06) =  -165.224009521     A.U. after   19 cycles
             Convg  =    0.9180D-08             -V/T =  2.0021
 <Sx>= 0.0000 <Sy>= 0.0000 <Sz>= 0.5000 <S**2>= 0.7657 S= 0.5078
 <L.S>=  0.00000000000    
 KE= 1.648747284716D+02 PE=-5.197340725778D+02 EE= 1.229937946077D+02
 Annihilation of the first spin contaminant:
 S**2 before annihilation     0.7657,   after     0.7500
 Leave Link  502 at Fri Apr 25 17:09:43 2014, MaxMem=   65536000 cpu:      16.2
 (Enter /apps/gaussian/g09/l801.exe)
 Range of M.O.s used for correlation:     1    66
 NBasis=    66 NAE=    12 NBE=    11 NFC=     0 NFV=     0
 NROrb=     66 NOA=    12 NOB=    11 NVA=    54 NVB=    55
 Leave Link  801 at Fri Apr 25 17:09:43 2014, MaxMem=   65536000 cpu:       0.2
 (Enter /apps/gaussian/g09/l1101.exe)
 Using compressed storage, NAtomX=     5.
 Will process   6 centers per pass.
 Leave Link 1101 at Fri Apr 25 17:09:43 2014, MaxMem=   65536000 cpu:       1.4
 (Enter /apps/gaussian/g09/l1102.exe)
 Symmetrizing basis deriv contribution to polar:
 IMax=3 JMax=2 DiffMx= 0.00D+00
 Leave Link 1102 at Fri Apr 25 17:09:43 2014, MaxMem=   65536000 cpu:       0.2
 (Enter /apps/gaussian/g09/l1110.exe)
 Forming Gx(P) for the SCF density, NAtomX=     5.
 Integral derivatives from FoFDir/FoFCou, PRISM(SPDF).
 Do as many integral derivatives as possible in FoFDir.
 G2DrvN: MDV=      65535856.
 G2DrvN: will do     6 centers at a time, making    1 passes doing MaxLOS=2.
 Calling FoFCou, ICntrl=  3107 FMM=F I1Cent=   0 AccDes= 0.00D+00.
 FoFCou: FMM=F IPFlag=           0 FMFlag=      100000 FMFlg1=           0
         NFxFlg=           0 DoJE=F BraDBF=F KetDBF=F FulRan=T
         Omega=  0.000000  0.000000  1.000000  0.000000  0.000000 ICntrl=    3107 IOpCl=  1
         NMat0=    1 NMatS0=    1 NMatT0=    0 NMatD0=    1 NMtDS0=    0 NMtDT0=    0
         I1Cent=           0 NGrid=           0.
 Symmetry not used in FoFCou.
 FoFDir/FoFCou used for L=0 through L=2.
 End of G2Drv Frequency-dependent properties file   721 does not exist.
 End of G2Drv Frequency-dependent properties file   722 does not exist.
 Leave Link 1110 at Fri Apr 25 17:09:45 2014, MaxMem=   65536000 cpu:      16.9
 (Enter /apps/gaussian/g09/l1002.exe)
 Minotr:  UHF open shell wavefunction.
          IDoAtm=11111
          Direct CPHF calculation.
          Differentiating once with respect to electric field.
                with respect to dipole field.
          Differentiating once with respect to nuclear coordinates.
          Requested convergence is 1.0D-08 RMS, and 1.0D-07 maximum.
          Secondary convergence is 1.0D-12 RMS, and 1.0D-12 maximum.
          NewPWx=T KeepS1=F KeepF1=F KeepIn=T MapXYZ=F SortEE=F KeepMc=T.
          MDV=      65535946 using IRadAn=       2.
 Generate precomputed XC quadrature information.
          Keep R1 and R2 ints in memory in canonical form, NReq=6656460.
 Symmetry not used in FoFDir.
 MinBra= 0 MaxBra= 2 Meth= 1.
 IRaf=       0 NMat=   1 IRICut=       1 DoRegI=T DoRafI=F ISym2E= 0 JSym2E=0.
          Solving linear equations simultaneously, MaxMat=       0.
          There are    18 degrees of freedom in the 1st order CPHF.  IDoFFX=5.
     15 vectors produced by pass  0 Test12= 6.96D-15 5.56D-09 XBig12= 2.14D+02 8.53D+00.
 AX will form    15 AO Fock derivatives at one time.
     15 vectors produced by pass  1 Test12= 6.96D-15 5.56D-09 XBig12= 6.75D+01 2.26D+00.
     15 vectors produced by pass  2 Test12= 6.96D-15 5.56D-09 XBig12= 1.41D+00 2.67D-01.
     15 vectors produced by pass  3 Test12= 6.96D-15 5.56D-09 XBig12= 3.51D-02 3.56D-02.
     15 vectors produced by pass  4 Test12= 6.96D-15 5.56D-09 XBig12= 4.54D-04 3.74D-03.
     15 vectors produced by pass  5 Test12= 6.96D-15 5.56D-09 XBig12= 4.22D-06 4.56D-04.
     14 vectors produced by pass  6 Test12= 6.96D-15 5.56D-09 XBig12= 2.58D-08 2.58D-05.
      6 vectors produced by pass  7 Test12= 6.96D-15 5.56D-09 XBig12= 1.39D-10 1.92D-06.
      2 vectors produced by pass  8 Test12= 6.96D-15 5.56D-09 XBig12= 4.91D-13 1.24D-07.
      1 vectors produced by pass  9 Test12= 6.96D-15 5.56D-09 XBig12= 1.75D-15 5.73D-09.
 Inverted reduced A of dimension   113 with in-core refinement.
 FullF1:  Do perturbations    1 to     3.
 Isotropic polarizability for W=    0.000000       30.17 Bohr**3.
 End of Minotr Frequency-dependent properties file   721 does not exist.
 End of Minotr Frequency-dependent properties file   722 does not exist.
 Leave Link 1002 at Fri Apr 25 17:09:47 2014, MaxMem=   65536000 cpu:      26.6
 (Enter /apps/gaussian/g09/l601.exe)
 Copying SCF densities to generalized density rwf, IOpCl= 1 IROHF=0.

 **********************************************************************

            Population analysis using the SCF density.

 **********************************************************************

 Orbital symmetries:
 Alpha Orbitals:
       Occupied  (A) (A) (A) (A) (A) (A) (A) (A) (A) (A) (A) (A)
       Virtual   (A) (A) (A) (A) (A) (A) (A) (A) (A) (A) (A) (A)
                 (A) (A) (A) (A) (A) (A) (A) (A) (A) (A) (A) (A)
                 (A) (A) (A) (A) (A) (A) (A) (A) (A) (A) (A) (A)
                 (A) (A) (A) (A) (A) (A) (A) (A) (A) (A) (A) (A)
                 (A) (A) (A) (A) (A) (A)
 Beta  Orbitals:
       Occupied  (A) (A) (A) (A) (A) (A) (A) (A) (A) (A) (A)
       Virtual   (A) (A) (A) (A) (A) (A) (A) (A) (A) (A) (A) (A)
                 (A) (A) (A) (A) (A) (A) (A) (A) (A) (A) (A) (A)
                 (A) (A) (A) (A) (A) (A) (A) (A) (A) (A) (A) (A)
                 (A) (A) (A) (A) (A) (A) (A) (A) (A) (A) (A) (A)
                 (A) (A) (A) (A) (A) (A) (A)
 The electronic state is 2-A.
 Alpha  occ. eigenvalues --  -14.55884 -14.46764 -14.46687  -1.16984  -1.00596
 Alpha  occ. eigenvalues --   -0.65863  -0.56171  -0.53943  -0.47946  -0.40402
 Alpha  occ. eigenvalues --   -0.32487  -0.19854
 Alpha virt. eigenvalues --   -0.03641   0.00825   0.03921   0.21880   0.26161
 Alpha virt. eigenvalues --    0.36098   0.41993   0.45899   0.50256   0.53413
 Alpha virt. eigenvalues --    0.60001   0.64681   0.67772   0.68846   0.73866
 Alpha virt. eigenvalues --    0.78612   0.89925   1.01206   1.13141   1.22429
 Alpha virt. eigenvalues --    1.37556   1.41575   1.42641   1.52809   1.65650
 Alpha virt. eigenvalues --    1.67027   1.71289   1.83993   1.89012   2.07273
 Alpha virt. eigenvalues --    2.09795   2.18647   2.23107   2.36278   2.38506
 Alpha virt. eigenvalues --    2.47582   2.52718   2.65309   2.84962   3.04384
 Alpha virt. eigenvalues --    3.16282   3.47032   3.51994   3.63025   3.86736
 Alpha virt. eigenvalues --    3.89900   3.90679   4.08659   4.27138   4.35015
 Alpha virt. eigenvalues --    5.04135  34.97069  35.45267  36.13669
  Beta  occ. eigenvalues --  -14.55804 -14.46555 -14.46261  -1.16084  -0.99762
  Beta  occ. eigenvalues --   -0.65634  -0.54447  -0.53539  -0.46462  -0.37918
  Beta  occ. eigenvalues --   -0.31651
  Beta virt. eigenvalues --   -0.06669  -0.01980   0.02391   0.05399   0.22374
  Beta virt. eigenvalues --    0.34878   0.36679   0.41928   0.45896   0.50257
  Beta virt. eigenvalues --    0.54316   0.60224   0.65259   0.68295   0.68877
  Beta virt. eigenvalues --    0.73787   0.79041   0.90444   1.01626   1.13162
  Beta virt. eigenvalues --    1.23181   1.40116   1.42700   1.46290   1.54915
  Beta virt. eigenvalues --    1.66471   1.67812   1.72013   1.84438   1.91711
  Beta virt. eigenvalues --    2.08485   2.11295   2.22387   2.24584   2.37917
  Beta virt. eigenvalues --    2.39046   2.47752   2.60795   2.65907   2.85189
  Beta virt. eigenvalues --    3.05534   3.17202   3.46807   3.52579   3.64208
  Beta virt. eigenvalues --    3.86720   3.90993   3.92148   4.08592   4.26752
  Beta virt. eigenvalues --    4.35465   5.04226  34.97554  35.45523  36.14140
     Alpha Molecular Orbital Coefficients:
                           1         2         3         4         5
                           O         O         O         O         O
     Eigenvalues --   -14.55884 -14.46764 -14.46687  -1.16984  -1.00596
   1 1   N  1S          0.55747  -0.00333  -0.00143  -0.10456  -0.00386
   2        2S          0.46465  -0.00215  -0.00092  -0.16222  -0.00657
   3        2PX        -0.00031   0.00106  -0.00073   0.02957  -0.17515
   4        2PY         0.00033   0.00016   0.00001   0.01616  -0.01613
   5        2PZ        -0.00013   0.00003  -0.00006  -0.00245  -0.00684
   6        3S          0.01815  -0.00270  -0.00094   0.45994   0.02399
   7        3PX         0.00240  -0.00570   0.00259   0.02823  -0.23424
   8        3PY         0.00088  -0.00094  -0.00006   0.01990  -0.02072
   9        3PZ        -0.00008  -0.00012   0.00021  -0.00371  -0.00924
  10        4S         -0.00394   0.00338   0.00228   0.21088   0.02125
  11        4PX         0.00064   0.00776  -0.00752  -0.00796  -0.06272
  12        4PY        -0.00030   0.00081   0.00001   0.00528  -0.00891
  13        4PZ         0.00006   0.00034  -0.00029  -0.00096  -0.00148
  14        5D 0       -0.00227   0.00133   0.00069  -0.01231  -0.00153
  15        5D+1        0.00037  -0.00004  -0.00031   0.00184   0.00098
  16        5D-1        0.00002  -0.00002   0.00003  -0.00054  -0.00022
  17        5D+2        0.00379  -0.00212  -0.00126   0.01914   0.00297
  18        5D-2        0.00079  -0.00094   0.00015   0.00401  -0.00332
  19 2   N  1S          0.00315   0.55724   0.01324  -0.06678   0.06604
  20        2S          0.00337   0.46504   0.01107  -0.10301   0.10304
  21        2PX        -0.00079  -0.00177  -0.00012  -0.08042   0.06876
  22        2PY        -0.00019  -0.00034   0.00003  -0.01495   0.01625
  23        2PZ        -0.00000  -0.00003  -0.00003  -0.00148   0.00048
  24        3S         -0.00304   0.01689   0.00035   0.28837  -0.29183
  25        3PX         0.00536  -0.00399   0.00004  -0.10796   0.09029
  26        3PY         0.00119  -0.00076  -0.00018  -0.01932   0.02239
  27        3PZ         0.00003  -0.00006   0.00009  -0.00212   0.00032
  28        4S         -0.00090  -0.01179   0.00463   0.11506  -0.14433
  29        4PX        -0.00034   0.00398  -0.00150  -0.02228   0.02617
  30        4PY         0.00007   0.00100  -0.00065  -0.00577   0.00627
  31        4PZ        -0.00002  -0.00002  -0.00005  -0.00007  -0.00009
  32        5D 0        0.00153  -0.00123   0.00001  -0.00893   0.00815
  33        5D+1       -0.00002   0.00008  -0.00006   0.00060  -0.00001
  34        5D-1       -0.00000   0.00001  -0.00002  -0.00016   0.00019
  35        5D+2       -0.00238   0.00196  -0.00012   0.01331  -0.01098
  36        5D-2       -0.00115   0.00074   0.00019   0.00503  -0.00640
  37 3   N  1S          0.00128  -0.01325   0.55748  -0.04785  -0.08551
  38        2S          0.00140  -0.01103   0.46490  -0.07381  -0.13306
  39        2PX         0.00087   0.00010   0.00119   0.04746   0.05563
  40        2PY         0.00003   0.00008  -0.00056  -0.00587  -0.01815
  41        2PZ         0.00000  -0.00004   0.00091   0.01056   0.02300
  42        3S         -0.00095  -0.00043   0.01670   0.20594   0.37458
  43        3PX        -0.00355  -0.00031   0.00054   0.07013   0.08786
  44        3PY        -0.00021  -0.00018  -0.00091  -0.00623  -0.02513
  45        3PZ         0.00004   0.00005   0.00098   0.01474   0.03392
  46        4S          0.00086   0.00405  -0.01239   0.08067   0.21784
  47        4PX         0.00110   0.00183  -0.00320   0.00194   0.02265
  48        4PY         0.00013  -0.00012  -0.00005  -0.00572  -0.00701
  49        4PZ         0.00010   0.00012  -0.00104   0.00699   0.01509
  50        5D 0        0.00095   0.00007  -0.00050  -0.00519  -0.00791
  51        5D+1       -0.00060   0.00004  -0.00022   0.00221   0.00372
  52        5D-1       -0.00017   0.00001  -0.00055  -0.00160  -0.00381
  53        5D+2       -0.00177  -0.00015   0.00074   0.00846   0.01228
  54        5D-2        0.00053  -0.00019   0.00048  -0.00062  -0.00307
  55 4   H  1S         -0.00029  -0.00003  -0.00010   0.02235   0.05726
  56        2S         -0.00079   0.00005  -0.00135   0.01984   0.05412
  57        3S          0.00070   0.00039   0.00135  -0.01151  -0.00911
  58        4PX        -0.00019   0.00013  -0.00082   0.00480   0.00922
  59        4PY        -0.00054   0.00004  -0.00134   0.00378   0.00937
  60        4PZ         0.00042  -0.00003   0.00127  -0.00291  -0.00786
  61 5   H  1S          0.00010   0.00003   0.00001   0.00324   0.00940
  62        2S         -0.00035  -0.00014   0.00056   0.00592   0.00916
  63        3S          0.00031   0.00018   0.00033  -0.00377  -0.00071
  64        4PX        -0.00007  -0.00002   0.00034   0.00071   0.00062
  65        4PY         0.00008  -0.00000  -0.00029  -0.00093  -0.00221
  66        4PZ         0.00000  -0.00000  -0.00002  -0.00030  -0.00047
                           6         7         8         9        10
                           O         O         O         O         O
     Eigenvalues --    -0.65863  -0.56171  -0.53943  -0.47946  -0.40402
   1 1   N  1S          0.04346   0.02594  -0.01490   0.02838   0.00412
   2        2S          0.06929   0.04194  -0.02396   0.04574   0.00670
   3        2PX         0.09779  -0.00275  -0.02390  -0.12068   0.01704
   4        2PY        -0.02781   0.20026   0.04038  -0.03576  -0.08870
   5        2PZ         0.04503  -0.01966   0.21344   0.02206   0.03569
   6        3S         -0.21422  -0.12859   0.07388  -0.14468  -0.02371
   7        3PX         0.13650  -0.00750  -0.03591  -0.16454   0.02023
   8        3PY        -0.04392   0.30968   0.06304  -0.05199  -0.13448
   9        3PZ         0.06967  -0.02942   0.32873   0.03385   0.05486
  10        4S         -0.21668  -0.13733   0.07698  -0.17524  -0.00947
  11        4PX         0.07690   0.03403  -0.02106  -0.13250   0.10998
  12        4PY        -0.02860   0.21382   0.03868  -0.04616  -0.10418
  13        4PZ         0.03770  -0.02702   0.23245   0.03017   0.04401
  14        5D 0       -0.00069  -0.00039  -0.00220  -0.00037   0.00173
  15        5D+1       -0.00554  -0.00054   0.00403   0.00308   0.01241
  16        5D-1        0.00135  -0.00155   0.00517   0.00098   0.00103
  17        5D+2        0.00232  -0.00905  -0.00097   0.00265   0.00626
  18        5D-2        0.00607  -0.00147  -0.00017  -0.00059  -0.03525
  19 2   N  1S         -0.03288  -0.02048   0.01481  -0.07552  -0.00147
  20        2S         -0.05209  -0.03287   0.02367  -0.12036  -0.00258
  21        2PX         0.00435  -0.00248  -0.02602   0.20720   0.04002
  22        2PY        -0.01724   0.11795   0.02449   0.02931  -0.14603
  23        2PZ         0.01653  -0.01091   0.13205   0.02404   0.04907
  24        3S          0.15177   0.09798  -0.06973   0.34236   0.00778
  25        3PX         0.00818  -0.00869  -0.03625   0.28098   0.05892
  26        3PY        -0.02719   0.18168   0.03862   0.03824  -0.22059
  27        3PZ         0.02664  -0.01725   0.20460   0.03614   0.07388
  28        4S          0.13611   0.07162  -0.08327   0.58487  -0.05540
  29        4PX        -0.00133   0.00907  -0.01887   0.14009   0.07186
  30        4PY        -0.00901   0.09552   0.02183   0.01773  -0.16572
  31        4PZ         0.00994  -0.00623   0.10902   0.02212   0.05966
  32        5D 0       -0.00044   0.00042  -0.00181   0.01261  -0.00022
  33        5D+1       -0.00568   0.00290  -0.03337  -0.00490  -0.00862
  34        5D-1       -0.00117   0.00002  -0.00642  -0.00167  -0.00144
  35        5D+2       -0.00239   0.00991   0.00510  -0.02290  -0.00917
  36        5D-2        0.00520  -0.02865  -0.00585  -0.00644   0.02270
  37 3   N  1S         -0.04699  -0.02809   0.02142   0.00223  -0.02090
  38        2S         -0.07398  -0.04489   0.03418   0.00352  -0.03331
  39        2PX        -0.16260  -0.03258   0.02718   0.06821  -0.02383
  40        2PY        -0.06671   0.11569   0.02284  -0.01579   0.15460
  41        2PZ         0.06143  -0.01207   0.10425   0.00627  -0.05428
  42        3S          0.20495   0.13107  -0.10126  -0.00552   0.09135
  43        3PX        -0.23603  -0.04256   0.03631   0.10145  -0.03544
  44        3PY        -0.09774   0.17947   0.03568  -0.02617   0.22804
  45        3PZ         0.09335  -0.01564   0.16194   0.00998  -0.07531
  46        4S          0.26388   0.18673  -0.10958  -0.05492   0.25212
  47        4PX        -0.08679  -0.02445   0.02860   0.05964  -0.00516
  48        4PY        -0.04790   0.10452   0.02597  -0.01210   0.19656
  49        4PZ         0.05251   0.00169   0.09939   0.00024  -0.04803
  50        5D 0        0.01003   0.00048   0.00916  -0.00233  -0.00123
  51        5D+1       -0.00611  -0.00452   0.02629   0.00747  -0.00182
  52        5D-1       -0.01128   0.00801  -0.00226  -0.00042   0.01225
  53        5D+2       -0.02046   0.00250   0.00121   0.00620  -0.00037
  54        5D-2        0.00447   0.02347   0.00321  -0.00693  -0.00213
  55 4   H  1S          0.15640  -0.02004  -0.00303  -0.02190  -0.09305
  56        2S          0.18718  -0.03780  -0.00299  -0.02724  -0.15704
  57        3S          0.03361  -0.00659  -0.00204  -0.01170  -0.05182
  58        4PX         0.00436  -0.00814   0.00362   0.00416  -0.01372
  59        4PY         0.01552   0.00406   0.00254  -0.00224  -0.00042
  60        4PZ        -0.01223   0.00258   0.00811   0.00103   0.00636
  61 5   H  1S          0.02519   0.04936  -0.00166  -0.02203   0.11554
  62        2S          0.03348   0.06777  -0.00552  -0.03705   0.18102
  63        3S          0.01427   0.03200  -0.00204  -0.01675   0.13614
  64        4PX        -0.00006   0.00355   0.00028  -0.00090   0.00281
  65        4PY        -0.00533  -0.00427   0.00119   0.00244  -0.00557
  66        4PZ         0.00001  -0.00109   0.00218   0.00049  -0.00187
                          11        12        13        14        15
                           O         O         V         V         V
     Eigenvalues --    -0.32487  -0.19854  -0.03641   0.00825   0.03921
   1 1   N  1S         -0.00599  -0.01217   0.00480   0.00182  -0.00891
   2        2S         -0.00987  -0.01986   0.00725   0.00294  -0.01437
   3        2PX        -0.01934  -0.01667  -0.01293  -0.02583  -0.00812
   4        2PY        -0.00535  -0.09743   0.14234   0.13231  -0.03777
   5        2PZ        -0.03339  -0.01313  -0.14713   0.17891   0.01146
   6        3S          0.03400   0.05543  -0.00319  -0.00762   0.02642
   7        3PX        -0.02904  -0.02069  -0.03659  -0.04488  -0.04022
   8        3PY        -0.00594  -0.14935   0.21898   0.20565  -0.05680
   9        3PZ        -0.04935  -0.02061  -0.22723   0.27597   0.01707
  10        4S          0.01109   0.12307  -0.20801  -0.05119   0.14934
  11        4PX         0.01219  -0.05797   0.14819  -0.04331   0.28330
  12        4PY        -0.01086  -0.18952   0.32472   0.31967  -0.10118
  13        4PZ        -0.04314  -0.02641  -0.32013   0.43687   0.05295
  14        5D 0       -0.00362   0.00328  -0.00113   0.00040   0.01274
  15        5D+1       -0.04859   0.00470   0.02137  -0.00850   0.00121
  16        5D-1       -0.00510   0.00276   0.00197  -0.00260  -0.00544
  17        5D+2        0.00331  -0.01381   0.00651   0.00353  -0.02249
  18        5D-2       -0.01360   0.03396  -0.01216  -0.00148  -0.01251
  19 2   N  1S         -0.00000   0.00397  -0.00208  -0.00028   0.01257
  20        2S          0.00001   0.00687  -0.00377  -0.00047   0.02092
  21        2PX         0.02447  -0.00757   0.01029   0.01913   0.03761
  22        2PY        -0.04615   0.15809  -0.13526  -0.10599   0.04233
  23        2PZ        -0.16584   0.01652   0.14914  -0.15375  -0.01581
  24        3S         -0.00138  -0.03027   0.01763   0.00145  -0.08852
  25        3PX         0.03489  -0.01120   0.01170   0.02647   0.05475
  26        3PY        -0.06876   0.23195  -0.19515  -0.15082   0.06383
  27        3PZ        -0.24753   0.02328   0.21309  -0.21786  -0.02475
  28        4S         -0.00386   0.04281  -0.10402  -0.00458  -0.25902
  29        4PX         0.03371  -0.04932   0.07555   0.05376   0.13084
  30        4PY        -0.06285   0.28890  -0.30138  -0.27287   0.12614
  31        4PZ        -0.23266   0.03317   0.35129  -0.39837  -0.03850
  32        5D 0        0.00098   0.00108  -0.00092   0.00001  -0.00125
  33        5D+1        0.02007  -0.00034   0.00531  -0.00986   0.00007
  34        5D-1        0.00410   0.00004   0.00113  -0.00239  -0.00095
  35        5D+2       -0.00322  -0.00018   0.00410   0.00365   0.00199
  36        5D-2        0.00410  -0.00621  -0.00532  -0.00780   0.00195
  37 3   N  1S          0.02591   0.03480   0.02639   0.01111   0.03160
  38        2S          0.04168   0.05599   0.04196   0.01766   0.04987
  39        2PX         0.02919   0.01570   0.08178   0.03061  -0.00657
  40        2PY         0.05824  -0.08718  -0.06897  -0.11291   0.13650
  41        2PZ         0.21261  -0.02367   0.03341  -0.12527  -0.06376
  42        3S         -0.12787  -0.17353  -0.10935  -0.04625  -0.13517
  43        3PX         0.03931   0.00920   0.11677   0.03962  -0.05138
  44        3PY         0.08652  -0.12489  -0.09712  -0.15980   0.17465
  45        3PZ         0.31137  -0.04035   0.03712  -0.17442  -0.07969
  46        4S         -0.14964  -0.34348  -0.30283  -0.20147  -0.53027
  47        4PX         0.05256   0.03603   0.26101   0.09433   0.24182
  48        4PY         0.10296  -0.17255  -0.14220  -0.29331   0.43986
  49        4PZ         0.34727  -0.03595   0.08175  -0.34406  -0.21036
  50        5D 0        0.01200  -0.00934  -0.00470  -0.00708   0.00060
  51        5D+1        0.01362  -0.00234  -0.01709   0.01781  -0.00529
  52        5D-1       -0.00465  -0.00016  -0.00506   0.00022   0.00072
  53        5D+2        0.00292  -0.00495   0.00092  -0.00486   0.00508
  54        5D-2        0.00157  -0.02772   0.01276   0.00743   0.01114
  55 4   H  1S          0.03180  -0.00726   0.08568   0.00079   0.04691
  56        2S          0.03851  -0.02495   0.17933  -0.00820  -0.03985
  57        3S          0.01845   0.02233   0.34192   0.16169   1.56158
  58        4PX         0.00618   0.00306  -0.00242   0.00246  -0.01965
  59        4PY         0.00918  -0.00675  -0.00530  -0.01688  -0.01562
  60        4PZ         0.01721  -0.00176   0.00230  -0.01513   0.01790
  61 5   H  1S          0.05629   0.18190   0.05413   0.04166  -0.04366
  62        2S          0.08126   0.35824   0.10568   0.07148  -0.09173
  63        3S          0.07823   0.47774   0.24046   0.31815  -0.32864
  64        4PX        -0.00055  -0.00445  -0.00482  -0.00305  -0.00127
  65        4PY         0.00161   0.00300   0.00914   0.00995  -0.00584
  66        4PZ         0.00560   0.00224   0.00645  -0.00233  -0.00181
                          16        17        18        19        20
                           V         V         V         V         V
     Eigenvalues --     0.21880   0.26161   0.36098   0.41993   0.45899
   1 1   N  1S         -0.06794   0.02341  -0.00181   0.00798   0.04599
   2        2S         -0.11057   0.03952  -0.00053   0.01835   0.08706
   3        2PX        -0.08003   0.03802   0.03595   0.14552  -0.06870
   4        2PY         0.04281  -0.06045  -0.04177   0.04852   0.03573
   5        2PZ        -0.02665  -0.00520   0.04614  -0.02196  -0.02042
   6        3S          0.27531  -0.14748  -0.07381  -0.22794  -0.62669
   7        3PX        -0.13294   0.03200   0.10152   0.23730  -0.06764
   8        3PY         0.07007  -0.10493  -0.07721   0.09531   0.11688
   9        3PZ        -0.03442  -0.01366   0.07416  -0.07445  -0.04916
  10        4S          2.53492  -0.66058   0.26785   1.20602  -1.91842
  11        4PX        -0.47551   0.56789  -0.02714   4.72889  -1.87210
  12        4PY         0.25952  -0.10717  -0.25156   0.49953  -0.43809
  13        4PZ        -0.16514   0.07151   0.27492   0.24617   0.03999
  14        5D 0        0.03116  -0.00550   0.00543   0.01015   0.00663
  15        5D+1       -0.00866  -0.00301   0.01664  -0.00459  -0.00988
  16        5D-1        0.00134  -0.00086  -0.02075   0.00985  -0.00003
  17        5D+2       -0.05265   0.00932  -0.01374  -0.01589  -0.01381
  18        5D-2       -0.01295  -0.01296  -0.01472   0.00723   0.00941
  19 2   N  1S          0.04252  -0.00277   0.01381   0.04637   0.00035
  20        2S          0.07199  -0.00383   0.02446   0.07941   0.01130
  21        2PX         0.14619  -0.02655   0.03576   0.02817   0.06438
  22        2PY        -0.00695  -0.00017   0.00347  -0.00943   0.00202
  23        2PZ         0.01864   0.00121  -0.00096  -0.00322   0.01069
  24        3S         -0.28706  -0.00838  -0.11096  -0.26966  -0.30541
  25        3PX         0.21639  -0.02048   0.06488   0.05655   0.32992
  26        3PY        -0.00451  -0.03023  -0.03499  -0.02696   0.07194
  27        3PZ         0.02516   0.00335   0.03727  -0.02347   0.02234
  28        4S         -0.53038  -0.14301  -0.05457  -4.54476   2.95934
  29        4PX         0.56426  -0.07138   0.09544   2.51805  -2.22219
  30        4PY        -0.06257   0.15130   0.20656   0.63400  -0.48983
  31        4PZ         0.08792  -0.01905  -0.19240   0.03514  -0.04833
  32        5D 0       -0.00089  -0.00173  -0.00126   0.00275   0.01951
  33        5D+1        0.00306   0.00134  -0.00883   0.00743   0.00623
  34        5D-1        0.00137   0.00092  -0.00453   0.00228  -0.00029
  35        5D+2        0.00639  -0.00588  -0.00393   0.00009  -0.02456
  36        5D-2       -0.00600   0.00845   0.00879  -0.00917  -0.03045
  37 3   N  1S          0.04472  -0.01704   0.02632  -0.01474   0.01169
  38        2S          0.07408  -0.02800   0.04677  -0.01783   0.02516
  39        2PX        -0.21117   0.02964   0.03212  -0.06197  -0.09249
  40        2PY        -0.01469   0.04233   0.06881  -0.04716  -0.04126
  41        2PZ         0.00815   0.02002  -0.08607   0.00072   0.02896
  42        3S         -0.23312   0.09215  -0.19201  -0.16313  -0.19414
  43        3PX        -0.30866   0.01600   0.01171  -0.29035  -0.39396
  44        3PY        -0.00575   0.09179   0.13548  -0.08778  -0.10138
  45        3PZ         0.00733   0.03683  -0.18742  -0.00415   0.08028
  46        4S         -1.21500   0.42416  -0.51158   4.01806  -0.61798
  47        4PX        -1.19172   0.61734   0.62994   2.41409   0.28700
  48        4PY        -0.08236  -0.08067   0.74112  -0.62800   0.26965
  49        4PZ        -0.04633   0.00067  -0.57852   0.58665  -0.19423
  50        5D 0       -0.00622   0.01800  -0.00505   0.00826   0.01343
  51        5D+1       -0.00651   0.00444  -0.00608  -0.01400  -0.00142
  52        5D-1        0.00238  -0.00523  -0.01293  -0.00200   0.00764
  53        5D+2        0.02076  -0.00025  -0.01303  -0.02820  -0.02828
  54        5D-2        0.01598   0.00697   0.00638   0.01320   0.00358
  55 4   H  1S          0.01583  -0.00257   0.13022  -0.02988  -0.01790
  56        2S          0.14008   0.10943   1.96109  -0.85137  -0.01281
  57        3S         -0.57236  -0.25569  -0.91106   0.37165   0.07539
  58        4PX        -0.02830  -0.00298   0.03322  -0.01270   0.03495
  59        4PY         0.01961   0.02387  -0.00641  -0.02868   0.00670
  60        4PZ        -0.01228   0.01394  -0.00262   0.01537  -0.01281
  61 5   H  1S         -0.03045  -0.12658   0.02094   0.00075   0.00848
  62        2S         -0.30316  -1.24524   0.17737   0.15690   0.11388
  63        3S          0.34404   1.70756  -0.06630  -0.00797  -0.15604
  64        4PX        -0.01136   0.01151   0.02865   0.04684   0.02977
  65        4PY        -0.00423  -0.00260   0.02437  -0.00469  -0.00214
  66        4PZ        -0.00250  -0.00351  -0.02704   0.02444  -0.00379
                          21        22        23        24        25
                           V         V         V         V         V
     Eigenvalues --     0.50256   0.53413   0.60001   0.64681   0.67772
   1 1   N  1S         -0.00590  -0.00395  -0.01266   0.03156   0.04056
   2        2S         -0.01136  -0.00723  -0.02494   0.06132   0.07826
   3        2PX        -0.02482  -0.00177  -0.03625  -0.02533  -0.09036
   4        2PY        -0.03695  -0.11018  -0.00722  -0.06978   0.08578
   5        2PZ        -0.10852   0.02389   0.03750  -0.01019   0.01320
   6        3S          0.07487   0.04676   0.16899  -0.38303  -0.49476
   7        3PX        -0.04065   0.00072  -0.09889  -0.27446  -0.41358
   8        3PY        -0.13548  -0.46369  -0.02354  -0.23935   0.31158
   9        3PZ        -0.43957   0.11032   0.14520  -0.04898   0.03183
  10        4S         -0.37716  -0.20365  -0.69250   0.75157   0.50895
  11        4PX        -0.25090   0.29017   1.12233   0.29199   1.05262
  12        4PY         0.13008   0.67564   0.21998   0.31219  -0.75605
  13        4PZ         0.49646  -0.17576  -0.37851   0.16256  -0.12747
  14        5D 0        0.00812   0.01031   0.01185   0.00174  -0.00734
  15        5D+1       -0.00097   0.00183   0.06682   0.01371   0.01452
  16        5D-1       -0.00796   0.00764   0.01958  -0.00864   0.00128
  17        5D+2       -0.00043   0.00812  -0.01254   0.00484   0.01270
  18        5D-2       -0.00274  -0.01913   0.00210   0.02995  -0.04860
  19 2   N  1S         -0.00752   0.00059  -0.01297   0.04841   0.04476
  20        2S         -0.01319   0.00116  -0.02453   0.09344   0.08808
  21        2PX         0.01587   0.03419   0.01469  -0.12560  -0.10811
  22        2PY        -0.02555  -0.15666   0.02949   0.08554  -0.13195
  23        2PZ        -0.12303   0.04085   0.13377   0.01973  -0.00268
  24        3S          0.04670  -0.02287   0.13750  -0.67276  -0.67988
  25        3PX         0.06415   0.12376   0.07627  -0.40612  -0.27231
  26        3PY        -0.09199  -0.55756   0.11319   0.28709  -0.45050
  27        3PZ        -0.44674   0.14153   0.46776   0.07701  -0.00752
  28        4S          0.36288  -0.17974  -0.72605   0.34554   0.12015
  29        4PX        -0.36279  -0.14214   0.04938   0.41688   0.12127
  30        4PY         0.03101   0.65240  -0.14885  -0.54345   0.97337
  31        4PZ         0.49238  -0.14822  -0.60469  -0.18360   0.04226
  32        5D 0        0.00023  -0.00053  -0.00181   0.00227   0.01235
  33        5D+1        0.03381  -0.00848  -0.02747  -0.00470  -0.00379
  34        5D-1        0.00789  -0.00133  -0.00080  -0.00355   0.00171
  35        5D+2       -0.00384  -0.01331   0.00249  -0.00700  -0.02751
  36        5D-2        0.00882   0.03893  -0.00530  -0.00713   0.00192
  37 3   N  1S         -0.00574   0.00485  -0.01350  -0.01378  -0.00541
  38        2S         -0.01075   0.00952  -0.02376  -0.02616  -0.00961
  39        2PX        -0.01850  -0.01242  -0.04685   0.04852   0.03716
  40        2PY        -0.01951  -0.08105   0.00893  -0.12986   0.06960
  41        2PZ        -0.13759   0.02828  -0.16432   0.00156  -0.03572
  42        3S          0.05929  -0.07546   0.06611   0.24124   0.07751
  43        3PX        -0.02064  -0.00880  -0.10896   0.14003   0.09156
  44        3PY        -0.09886  -0.27701   0.00701  -0.47418   0.22765
  45        3PZ        -0.47577   0.08845  -0.57219  -0.04159  -0.11976
  46        4S          0.00036   0.32600   1.30009  -0.67699   0.61474
  47        4PX        -0.12406   0.10256   0.51394  -0.30764  -0.18589
  48        4PY         0.08618   0.15819  -0.42573   1.02354  -0.30633
  49        4PZ         0.53911   0.02512   1.30933  -0.19615   0.35607
  50        5D 0       -0.01277  -0.00101  -0.01277   0.01773  -0.00202
  51        5D+1       -0.02787   0.00735  -0.03672   0.00409  -0.01597
  52        5D-1       -0.00246   0.00442   0.00142  -0.00138  -0.00197
  53        5D+2        0.01242   0.00138   0.02203  -0.00581  -0.00398
  54        5D-2        0.00018  -0.01718   0.01271  -0.02837   0.02303
  55 4   H  1S          0.00964  -0.02434   0.00495  -0.00970   0.01229
  56        2S         -0.02259  -0.31425  -0.53922   0.33871  -0.06617
  57        3S         -0.16921   0.51500  -0.05538   0.37385  -0.39996
  58        4PX        -0.02521  -0.02048  -0.10088   0.03337  -0.02560
  59        4PY        -0.01521   0.01483  -0.01767   0.08194  -0.03632
  60        4PZ         0.00809  -0.02036   0.02895  -0.03204   0.01611
  61 5   H  1S          0.00386   0.02066  -0.01002   0.02127   0.01650
  62        2S         -0.06440   0.10168  -0.10580  -0.17343   0.00932
  63        3S         -0.04133  -0.38967   0.15867  -0.25037   0.09719
  64        4PX        -0.00073   0.01921  -0.00774  -0.00863  -0.07078
  65        4PY         0.01133   0.01005  -0.01153   0.04138  -0.02105
  66        4PZ         0.02838   0.01216   0.08350  -0.01034   0.01302
                          26        27        28        29        30
                           V         V         V         V         V
     Eigenvalues --     0.68846   0.73866   0.78612   0.89925   1.01206
   1 1   N  1S          0.00315  -0.02552  -0.04492  -0.00571   0.00678
   2        2S          0.00626  -0.05072  -0.08808  -0.01054   0.00997
   3        2PX        -0.03243   0.00083  -0.15985   0.23273  -0.20616
   4        2PY        -0.07605   0.11592  -0.03423   0.01462   0.01578
   5        2PZ         0.16559   0.08914  -0.04931  -0.00502  -0.02652
   6        3S         -0.05201   0.38860   0.69541  -0.00565  -0.01104
   7        3PX        -0.16186  -0.05024  -0.56751   0.10729  -0.44731
   8        3PY        -0.26770   0.41201  -0.13228   0.03630   0.10261
   9        3PZ         0.55860   0.30333  -0.17304  -0.06909  -0.09271
  10        4S         -0.31151  -0.43198  -1.90129   1.24485   0.80851
  11        4PX         1.96254  -0.08938   2.93200   4.43276   8.87148
  12        4PY         0.94393  -1.47536   0.34998   0.40364   0.28917
  13        4PZ        -1.42462  -0.73367   0.78306   0.42113   0.63431
  14        5D 0        0.00616  -0.01076   0.00700   0.00659  -0.00715
  15        5D+1       -0.01660  -0.00553  -0.00254   0.04503   0.01661
  16        5D-1        0.02126  -0.02111  -0.01415   0.00403   0.03461
  17        5D+2       -0.01053   0.00152  -0.02684   0.01058   0.02450
  18        5D-2       -0.01097   0.00774  -0.01633  -0.11308  -0.02361
  19 2   N  1S          0.00876  -0.01641  -0.00747   0.03337  -0.05035
  20        2S          0.01710  -0.03358  -0.01628   0.05948  -0.09960
  21        2PX        -0.01953   0.05163  -0.04526   0.21821  -0.08123
  22        2PY         0.04295  -0.02928  -0.00011   0.06798   0.00774
  23        2PZ        -0.12962  -0.05337   0.00906   0.00054  -0.00590
  24        3S         -0.14818   0.27064   0.05357  -0.29783   0.77307
  25        3PX        -0.00871   0.09898  -0.17162   0.64969   0.08978
  26        3PY         0.16263  -0.14533  -0.01060   0.14940   0.03677
  27        3PZ        -0.45716  -0.18590   0.04911   0.02453   0.00399
  28        4S         -1.27109   0.04758  -1.49811  -3.86550  -8.11475
  29        4PX         0.44130  -0.22379   0.47693   0.94690   2.95567
  30        4PY        -0.34110   0.69124   0.12623   0.40634   1.04059
  31        4PZ         1.16507   0.52120  -0.31998  -0.17215  -0.14073
  32        5D 0        0.00607  -0.02157  -0.01177  -0.02488   0.03647
  33        5D+1        0.00258   0.00171  -0.00610  -0.02154  -0.02285
  34        5D-1        0.00592  -0.00413  -0.00725  -0.00509  -0.00355
  35        5D+2       -0.00805   0.01853   0.01598   0.01972  -0.09338
  36        5D-2       -0.00329   0.01653   0.01179   0.06694   0.02320
  37 3   N  1S         -0.00112  -0.03070  -0.04329  -0.05184   0.06929
  38        2S         -0.00068  -0.05971  -0.08641  -0.09681   0.13865
  39        2PX        -0.00230  -0.05615  -0.18406   0.16828  -0.00690
  40        2PY         0.04718  -0.13372   0.04204  -0.01406  -0.04114
  41        2PZ        -0.02438  -0.01383   0.05762   0.04328   0.00639
  42        3S         -0.08485   0.48563   0.68314   0.58963  -1.21264
  43        3PX        -0.04731  -0.07099  -0.40186   0.49874   0.15337
  44        3PY         0.15492  -0.47686   0.23596   0.01648  -0.25586
  45        3PZ        -0.04727  -0.13365   0.18292   0.10522   0.16548
  46        4S          1.83988  -1.13910   1.19801   2.38663   8.27468
  47        4PX         0.77689   0.24735   2.16049   0.70562   2.85188
  48        4PY        -0.91487   1.75548  -0.31905  -0.40824  -0.38068
  49        4PZ         0.84189   0.03111  -0.61530   0.08348   0.56399
  50        5D 0       -0.00349   0.00030  -0.06573   0.01293  -0.00265
  51        5D+1       -0.01482   0.02007   0.03177  -0.03139  -0.04765
  52        5D-1        0.00378  -0.00257   0.01597   0.02158   0.01096
  53        5D+2       -0.00912   0.04319   0.06508  -0.01814   0.05656
  54        5D-2        0.02421  -0.03246  -0.01044   0.08593   0.09816
  55 4   H  1S          0.03832  -0.02616   0.00387   0.05741   0.08145
  56        2S         -0.53073   0.59675   0.39215  -0.24101  -0.81954
  57        3S          0.02869   0.59262   0.64637   0.11481  -0.10260
  58        4PX        -0.15588   0.07959  -0.02211  -0.10955  -0.30376
  59        4PY        -0.04108   0.15039   0.06758   0.02306  -0.05935
  60        4PZ         0.00140  -0.04910  -0.15579  -0.08744   0.09683
  61 5   H  1S         -0.00523   0.01967  -0.01087   0.02452   0.03806
  62        2S          0.14633  -0.38651   0.37741   0.10193  -0.29565
  63        3S          0.04825   0.00244   0.13907  -0.02337   0.06382
  64        4PX         0.02585  -0.06275   0.03997  -0.06918   0.13021
  65        4PY        -0.01775   0.04731   0.05187   0.05575   0.02824
  66        4PZ         0.06710  -0.02772  -0.04125   0.05295   0.13818
                          31        32        33        34        35
                           V         V         V         V         V
     Eigenvalues --     1.13141   1.22429   1.37556   1.41575   1.42641
   1 1   N  1S          0.07951  -0.00089  -0.00316  -0.00122   0.00306
   2        2S          0.15382  -0.00187  -0.00702  -0.00239   0.00568
   3        2PX        -0.08770  -0.00896  -0.06972  -0.04134   0.00154
   4        2PY        -0.05798  -0.02082  -0.02587  -0.01750   0.01667
   5        2PZ         0.00481  -0.00135  -0.00168  -0.00189   0.01156
   6        3S         -1.36693   0.02697   0.00784   0.00799  -0.07434
   7        3PX         0.03232  -0.01957  -0.28768  -0.16744  -0.08058
   8        3PY        -0.06368  -0.05759  -0.07464  -0.03156  -0.02344
   9        3PZ         0.00335  -0.03238  -0.00540   0.06853  -0.00823
  10        4S          7.22547  -0.36132   1.37025   0.73237   0.68522
  11        4PX         0.67899   0.64692   5.07553   3.73322   2.94156
  12        4PY         0.70709   0.28735   0.74895   0.47723   0.58102
  13        4PZ        -0.09423   0.25833   0.23678  -0.23921   0.08847
  14        5D 0       -0.11947   0.12013  -0.00376  -0.01578   0.04359
  15        5D+1        0.02518   0.05124   0.02795  -0.35669   0.17151
  16        5D-1       -0.01154  -0.02053  -0.04205   0.01646   0.12858
  17        5D+2        0.20052   0.03538   0.02419   0.03597   0.00996
  18        5D-2        0.04272   0.01489   0.04785  -0.12541   0.15717
  19 2   N  1S         -0.06822  -0.00062  -0.01582  -0.00664  -0.00165
  20        2S         -0.13077  -0.00173  -0.03302  -0.01485  -0.00371
  21        2PX        -0.12290  -0.00070   0.01110   0.01000   0.03192
  22        2PY        -0.02885  -0.00346   0.01198   0.03355  -0.02147
  23        2PZ        -0.00084  -0.01504  -0.00997   0.05885  -0.02931
  24        3S          1.11574   0.00640   0.32078   0.15207   0.07116
  25        3PX         0.04967  -0.00918   0.12680   0.08292   0.14271
  26        3PY         0.01055   0.00070   0.04184   0.06437  -0.01423
  27        3PZ         0.00161  -0.01928  -0.01148   0.09371  -0.04986
  28        4S         -4.72857  -0.40886  -4.98706  -3.42068  -2.77951
  29        4PX         2.29845   0.14705   1.88757   1.25295   1.01550
  30        4PY         0.27996  -0.03352   0.37468   0.29943   0.18949
  31        4PZ         0.05562  -0.07844  -0.00807   0.12773  -0.00067
  32        5D 0        0.08473   0.02497   0.01418   0.00682   0.02628
  33        5D+1       -0.00353  -0.03798  -0.02515   0.21188  -0.11564
  34        5D-1       -0.00183  -0.01700  -0.02343   0.07869   0.01322
  35        5D+2       -0.12168   0.01852  -0.01888  -0.05950   0.04264
  36        5D-2       -0.06596  -0.00663  -0.01213   0.08550  -0.08602
  37 3   N  1S         -0.03638  -0.00021   0.00265   0.00873  -0.00266
  38        2S         -0.07147   0.00272   0.00261   0.02138  -0.00641
  39        2PX         0.00928  -0.03359  -0.02045  -0.01890   0.04423
  40        2PY         0.01127   0.04207  -0.01035   0.00406  -0.00875
  41        2PZ         0.01692   0.00137  -0.00275  -0.08137   0.00599
  42        3S          0.73351  -0.09520  -0.02485  -0.30343   0.01430
  43        3PX        -0.11606  -0.05066  -0.04749   0.09360   0.04858
  44        3PY         0.11108   0.01359  -0.02483  -0.04579   0.10745
  45        3PZ        -0.05890   0.04153   0.06483  -0.13917  -0.02374
  46        4S         -2.99982   0.91363   3.27448   3.26455   2.04298
  47        4PX        -1.16910   0.43904   1.51967   0.75312   0.94155
  48        4PY        -0.01571  -0.36272  -0.35699  -0.40351  -0.84203
  49        4PZ        -0.22079  -0.24338   0.13814   0.73890   0.37366
  50        5D 0        0.00217   0.24685  -0.02294   0.08658  -0.07340
  51        5D+1       -0.01422  -0.09359  -0.03532   0.32016  -0.15148
  52        5D-1        0.00784  -0.06540  -0.08265  -0.07003   0.07845
  53        5D+2       -0.03539   0.16270  -0.04059   0.00222  -0.04146
  54        5D-2        0.03549   0.00345  -0.13309   0.09961  -0.20286
  55 4   H  1S         -0.01674   0.04698   0.07134  -0.06961  -0.05506
  56        2S          0.46666  -0.20037  -0.18143  -0.50908  -0.27236
  57        3S         -0.01159   0.06576   0.09590  -0.01859  -0.05593
  58        4PX        -0.03918  -0.02732   0.38352   0.22966  -0.16574
  59        4PY         0.07906   0.44517  -0.26175  -0.15461   0.17222
  60        4PZ        -0.17982   0.58021   0.13683   0.14311   0.17488
  61 5   H  1S         -0.02256   0.02810   0.02062   0.00890   0.02074
  62        2S          0.28548   0.23141  -0.06667  -0.06997   0.06102
  63        3S         -0.14562  -0.19228   0.18223  -0.07088   0.21984
  64        4PX        -0.11600  -0.34898  -0.52036  -0.13385   0.19357
  65        4PY         0.08907   0.21888  -0.61677   0.33496  -0.17064
  66        4PZ        -0.03930   0.11024   0.02044  -0.47824  -0.80140
                          36        37        38        39        40
                           V         V         V         V         V
     Eigenvalues --     1.52809   1.65650   1.67027   1.71289   1.83993
   1 1   N  1S         -0.00931   0.00092  -0.00089   0.00054  -0.00823
   2        2S         -0.01939   0.00133  -0.00141  -0.00007  -0.01778
   3        2PX         0.01108   0.03951  -0.00403   0.06325   0.00199
   4        2PY        -0.02677   0.02921   0.01896   0.01759  -0.04043
   5        2PZ        -0.00637  -0.03172   0.01812  -0.01100   0.03562
   6        3S          0.28740  -0.00256   0.02394   0.05100   0.17843
   7        3PX         0.16850   0.04869   0.03607   0.03038  -0.07306
   8        3PY         0.03165   0.05101   0.03329   0.01329  -0.02540
   9        3PZ        -0.01378  -0.04472   0.02782  -0.01472   0.01032
  10        4S         -3.56319  -0.45899  -0.43428  -1.17632  -0.80496
  11        4PX        -2.67589  -1.10215  -0.76559   1.24715   1.59588
  12        4PY        -0.58733  -0.37564  -0.11099  -0.15382   0.00064
  13        4PZ        -0.04954   0.23578  -0.08631   0.42343   0.23064
  14        5D 0       -0.02919   0.18445   0.57026  -0.11269   0.01900
  15        5D+1        0.09128  -0.18954  -0.01845  -0.24959  -0.22872
  16        5D-1        0.07680   0.55073  -0.27126  -0.33691   0.05619
  17        5D+2       -0.08526   0.15825   0.33924  -0.07203  -0.06648
  18        5D-2       -0.28635   0.05911  -0.01983   0.20320   0.22175
  19 2   N  1S          0.00669   0.00387   0.00096   0.00675   0.00025
  20        2S          0.01318   0.00906   0.00209   0.01432   0.00048
  21        2PX        -0.04746  -0.00155  -0.01276   0.02448   0.01618
  22        2PY         0.03994  -0.00332   0.02148  -0.02691  -0.04314
  23        2PZ        -0.01268   0.01508   0.00984   0.05510   0.04559
  24        3S         -0.20180  -0.08211  -0.03279  -0.11644  -0.00660
  25        3PX        -0.22297   0.00458  -0.04375   0.08285   0.03391
  26        3PY         0.03540  -0.00150   0.03003  -0.03376  -0.05899
  27        3PZ        -0.02550   0.02458   0.01474   0.08514   0.06367
  28        4S          3.79206   1.13809   0.82538  -0.46823  -0.95785
  29        4PX        -1.49561  -0.45420  -0.31058   0.06639   0.28137
  30        4PY        -0.32094  -0.03586  -0.08690   0.14493   0.21441
  31        4PZ        -0.02690  -0.10531   0.01366  -0.17927  -0.13369
  32        5D 0       -0.06843   0.14229   0.43710  -0.09708   0.07177
  33        5D+1       -0.06935  -0.04178   0.09184   0.30109   0.19732
  34        5D-1        0.01656   0.40928  -0.18001  -0.25469   0.28924
  35        5D+2       -0.07336   0.10002   0.18679   0.03280   0.13830
  36        5D-2        0.15065   0.03650   0.21366  -0.15624  -0.23937
  37 3   N  1S          0.02997  -0.01983   0.00584  -0.00856   0.01591
  38        2S          0.06229  -0.04219   0.01154  -0.01500   0.02977
  39        2PX        -0.03781  -0.00536   0.00170   0.03340   0.08353
  40        2PY        -0.02935  -0.02801  -0.00901  -0.03250   0.09940
  41        2PZ         0.01121   0.01686  -0.00085   0.01405  -0.09268
  42        3S         -0.58654   0.34220  -0.07048  -0.00406  -0.21744
  43        3PX        -0.13581  -0.14512  -0.01158  -0.02097   0.15572
  44        3PY        -0.09204  -0.16059   0.05788  -0.06253   0.12095
  45        3PZ        -0.03500   0.13850  -0.03357   0.08200  -0.07633
  46        4S          0.07842  -1.13084  -0.43123   1.34335   1.68665
  47        4PX         0.47032   0.12532  -0.08370   1.33366   0.78762
  48        4PY         0.31277   0.53855  -0.00473   0.07827  -0.26827
  49        4PZ         0.23355  -0.48950   0.08337  -0.24252   0.17851
  50        5D 0       -0.05566   0.10454   0.05414   0.05253  -0.01337
  51        5D+1       -0.11823   0.10242  -0.06088   0.10336  -0.07415
  52        5D-1        0.07148   0.17154  -0.02989   0.13531  -0.32983
  53        5D+2        0.03608   0.02643   0.05949   0.01718  -0.11649
  54        5D-2        0.25301  -0.10076   0.01441  -0.13816   0.05833
  55 4   H  1S          0.13024  -0.17066   0.01738  -0.36392   0.72298
  56        2S         -0.37797   0.74517  -0.01772   0.76687  -1.13067
  57        3S          0.17184  -0.12080  -0.00159  -0.22668   0.51459
  58        4PX        -0.34249  -0.34741  -0.01886  -0.61541  -0.11489
  59        4PY         0.06080  -0.19007  -0.02742   0.08270   0.36269
  60        4PZ        -0.31919   0.06198  -0.21596  -0.02562  -0.27614
  61 5   H  1S         -0.03110  -0.00350   0.01647   0.01524   0.12654
  62        2S         -0.03189   0.01193  -0.03546   0.04060  -0.12781
  63        3S         -0.09535   0.02578   0.08142   0.11962   0.05633
  64        4PX        -0.57778  -0.13484   0.06005  -0.22282  -0.02493
  65        4PY        -0.04573  -0.14270  -0.09053  -0.23300  -0.11881
  66        4PZ        -0.30120   0.16356  -0.08302  -0.00047  -0.02584
                          41        42        43        44        45
                           V         V         V         V         V
     Eigenvalues --     1.89012   2.07273   2.09795   2.18647   2.23107
   1 1   N  1S         -0.00678   0.00159   0.00360   0.00115   0.00897
   2        2S         -0.01354   0.00448   0.00808   0.00305   0.02383
   3        2PX        -0.00026   0.00206  -0.00520  -0.01584   0.04755
   4        2PY        -0.00968   0.05640   0.00685   0.07966   0.12408
   5        2PZ        -0.02484   0.03110   0.01427   0.09086  -0.09478
   6        3S          0.18510  -0.03189  -0.04947  -0.07412  -0.20685
   7        3PX        -0.08364   0.02371   0.02666   0.01054   0.05680
   8        3PY        -0.00790   0.00996  -0.02262   0.01719  -0.01166
   9        3PZ        -0.00025   0.02538   0.01723   0.00781  -0.00285
  10        4S         -0.84679  -0.03728   0.07155   0.43418  -0.47119
  11        4PX         3.49598   0.70559   0.68816  -0.36384   1.25657
  12        4PY        -0.20594   0.13010   0.19195   0.35606   0.41906
  13        4PZ        -0.13091   0.04769   0.15329   0.33990  -0.04570
  14        5D 0        0.06814   0.33294  -0.26399  -0.05274  -0.19586
  15        5D+1        0.13982   0.00983   0.03853  -0.07181  -0.08214
  16        5D-1        0.03452  -0.25256  -0.44502   0.13714   0.18110
  17        5D+2       -0.11819   0.21758  -0.17003   0.06637   0.13740
  18        5D-2        0.34524   0.07598  -0.06027  -0.04411   0.09675
  19 2   N  1S          0.00266   0.00262  -0.00004   0.00225   0.00998
  20        2S          0.00435   0.00565  -0.00049   0.00565   0.02489
  21        2PX         0.04479   0.01006   0.00900  -0.00165  -0.00236
  22        2PY        -0.04141   0.01168   0.01499   0.00776   0.01974
  23        2PZ        -0.02976   0.00301   0.00204   0.02393  -0.00506
  24        3S         -0.02615  -0.03819   0.00923  -0.03944  -0.21168
  25        3PX         0.08978   0.05039   0.01137   0.03802   0.20213
  26        3PY        -0.07012   0.02393   0.00894   0.03653   0.06202
  27        3PZ        -0.04175   0.01061   0.01156   0.03174  -0.00539
  28        4S         -2.36789  -0.54983  -0.60842   0.08439  -0.74566
  29        4PX         0.73967   0.18800   0.23643   0.01087   0.17017
  30        4PY         0.48661  -0.00128  -0.00561  -0.19252  -0.14443
  31        4PZ         0.12411  -0.02172  -0.04938  -0.20938   0.08819
  32        5D 0        0.13923  -0.56245   0.37204  -0.00249  -0.02028
  33        5D+1       -0.17913   0.01219  -0.05791   0.38300  -0.23076
  34        5D-1       -0.06724   0.41711   0.62032  -0.05616  -0.20525
  35        5D+2        0.19118  -0.34407   0.17341  -0.13162   0.02048
  36        5D-2       -0.21209   0.01326   0.13740   0.30205   0.41392
  37 3   N  1S          0.02371   0.01062   0.00584   0.00149   0.02334
  38        2S          0.05461   0.02577   0.01723  -0.00189   0.05534
  39        2PX        -0.00813   0.00358  -0.01733   0.02098   0.03518
  40        2PY         0.07324   0.01456  -0.06872  -0.01119   0.05230
  41        2PZ         0.05752   0.04174   0.04598  -0.02903  -0.01457
  42        3S         -0.68297  -0.25142  -0.19279   0.09869  -0.52797
  43        3PX         0.26100   0.08724   0.10231  -0.08014   0.00642
  44        3PY        -0.12534   0.12727   0.15479  -0.07782   0.23585
  45        3PZ        -0.06097  -0.08956  -0.09732   0.08653  -0.17048
  46        4S          4.02488   0.61021   0.39399  -0.40848   1.32297
  47        4PX         1.10880   0.33142   0.37146  -0.20673   0.98458
  48        4PY         0.53429  -0.02331  -0.16341  -0.27929  -0.38305
  49        4PZ         0.73563   0.09220  -0.18154  -0.33029   0.14258
  50        5D 0        0.02198   0.13970  -0.24843  -0.37063  -0.24218
  51        5D+1        0.05681  -0.15978  -0.01679  -0.28510   0.34038
  52        5D-1       -0.08433  -0.13037   0.05023   0.01107  -0.46070
  53        5D+2        0.01210   0.19535  -0.00557  -0.18478   0.09918
  54        5D-2       -0.11234  -0.24781  -0.01059  -0.25028  -0.38907
  55 4   H  1S         -0.19763  -0.27771  -0.54298   0.26825  -0.26195
  56        2S         -0.08895   0.47571   0.93457  -0.43637   0.50253
[...]
                     A                      A                      A
 Frequencies --   597.1735               726.8962              1194.9096
 Red. masses --     4.7285                 1.4425                 2.3557
 Frc consts  --     0.9935                 0.4491                 1.9817
 IR Inten    --     7.1856                52.2533                81.1288
  Atom  AN      X      Y      Z        X      Y      Z        X      Y      Z
     1   7    -0.02   0.09   0.41    -0.05   0.14   0.01     0.08  -0.03   0.06
     2   7     0.02  -0.04  -0.20    -0.01  -0.04  -0.01     0.13   0.01  -0.00
     3   7     0.01  -0.04  -0.26     0.01  -0.09   0.04    -0.27   0.04  -0.06
     4   1    -0.19   0.31   0.02    -0.03  -0.39  -0.36     0.70  -0.53   0.13
     5   1     0.08  -0.39   0.65     0.79   0.21  -0.15     0.04   0.32  -0.07
                     7                      8                      9
                     A                      A                      A
 Frequencies --  1288.0606              2238.6888              3535.1428
 Red. masses --     1.7324                11.7232                 1.0766
 Frc consts  --     1.6934                34.6167                 7.9271
 IR Inten    --    26.7286               414.7120                61.1414
  Atom  AN      X      Y      Z        X      Y      Z        X      Y      Z
     1   7     0.05   0.02  -0.03     0.71   0.12   0.01    -0.00   0.00  -0.00
     2   7     0.16   0.02   0.01    -0.52  -0.11  -0.01    -0.00  -0.00  -0.00
     3   7    -0.14  -0.07   0.03    -0.17  -0.01   0.01     0.04   0.05  -0.04
     4   1    -0.90   0.27  -0.19    -0.38   0.04  -0.10    -0.48  -0.68   0.56
     5   1    -0.06   0.11   0.07     0.08  -0.11  -0.05     0.00  -0.01  -0.00

 -------------------
 - Thermochemistry -
 -------------------
 Temperature   298.150 Kelvin.  Pressure   1.00000 Atm.
 Atom     1 has atomic number  7 and mass  14.00307
 Atom     2 has atomic number  7 and mass  14.00307
 Atom     3 has atomic number  7 and mass  14.00307
 Atom     4 has atomic number  1 and mass   1.00783
 Atom     5 has atomic number  1 and mass   1.00783
 Molecular mass:    44.02487 amu.
 Principal axes and moments of inertia in atomic units:
                           1         2         3
     Eigenvalues --    11.06575 162.86171 170.85078
           X            0.99926  -0.02946  -0.02468
           Y            0.02920   0.99952  -0.01057
           Z            0.02498   0.00985   0.99964
 This molecule is an asymmetric top.
 Rotational symmetry number  1.
 Rotational temperatures (Kelvin)      7.82720     0.53182     0.50696
 Rotational constants (GHZ):         163.09253    11.08143    10.56326
    1 imaginary frequencies ignored.
 Zero-point vibrational energy      62825.0 (Joules/Mol)
                                   15.01554 (Kcal/Mol)
 Warning -- explicit consideration of   3 degrees of freedom as
           vibrations may cause significant error
 Vibrational temperatures:    636.48   691.01   859.20  1045.84  1719.21
          (Kelvin)           1853.23  3220.97  5086.28
 
 Zero-point correction=                           0.023929 (Hartree/Particle)
 Thermal correction to Energy=                    0.027564
 Thermal correction to Enthalpy=                  0.028508
 Thermal correction to Gibbs Free Energy=        -0.000637
 Sum of electronic and zero-point Energies=           -165.200081
 Sum of electronic and thermal Energies=              -165.196446
 Sum of electronic and thermal Enthalpies=            -165.195502
 Sum of electronic and thermal Free Energies=         -165.224646
 
                     E (Thermal)             CV                S
                      KCal/Mol        Cal/Mol-Kelvin    Cal/Mol-Kelvin
 Total                   17.296             10.816             61.340
 Electronic               0.000              0.000              1.377
 Translational            0.889              2.981             37.273
 Rotational               0.889              2.981             20.360
 Vibrational             15.519              4.855              2.330
 Vibration     1          0.802              1.378              0.819
 Vibration     2          0.837              1.294              0.709
 Vibration     3          0.955              1.038              0.455
                       Q            Log10(Q)             Ln(Q)
 Total Bot       0.196259D+01          0.292830          0.674266
 Total V=0       0.199198D+12         11.299285         26.017565
 Vib (Bot)       0.136064D-10        -10.866257        -25.020482
 Vib (Bot)    1  0.390035D+00         -0.408896         -0.941519
 Vib (Bot)    2  0.348151D+00         -0.458233         -1.055120
 Vib (Bot)    3  0.250771D+00         -0.600723         -1.383216
 Vib (V=0)       0.138101D+01          0.140198          0.322817
 Vib (V=0)    1  0.113414D+01          0.054665          0.125870
 Vib (V=0)    2  0.110927D+01          0.045037          0.103701
 Vib (V=0)    3  0.105936D+01          0.025044          0.057667
 Electronic      0.200000D+01          0.301030          0.693147
 Translational   0.114816D+08          7.060002         16.256256
 Rotational      0.628138D+04          3.798055          8.745344
 
                                                 reverse IRC, from TS reverse1 fr
 eq1
                                                             IR Spectrum
 
     3                                              2                                 1   1                                          
     5                                              2                                 2   1               7    5   4 4               
     3                                              3                                 8   9               2    9   8 4               
     5                                              9                                 8   5               7    7   0 2               
 
     X                                              X                                 X   X               X    X   X X               
     X                                              X                                     X               X                          
     X                                              X                                     X               X                          
                                                    X                                     X                                          
                                                    X                                                                                
                                                    X                                                                                
                                                    X                                                                                
                                                    X                                                                                
                                                    X                                                                                
                                                    X                                                                                
                                                    X                                                                                
                                                    X                                                                                
                                                    X                                                                                
                                                    X                                                                                
                                                    X                                                                                
                                                    X                                                                                
                                                    X                                                                                
                                                    X                                                                                
                                                    X                                                                                
                                                    X                                                                                
 
 ***** Axes restored to original set *****
 -------------------------------------------------------------------
 Center     Atomic                   Forces (Hartrees/Bohr)
 Number     Number              X              Y              Z
 -------------------------------------------------------------------
      1        7          -0.005334683   -0.005785743   -0.001566540
      2        7           0.002665324    0.003066612    0.003424585
      3        7           0.006995337    0.010123343   -0.004123611
      4        1           0.000681325    0.000103711   -0.000460989
      5        1          -0.005007303   -0.007507923    0.002726555
 -------------------------------------------------------------------
 Cartesian Forces:  Max     0.010123343 RMS     0.004834653
 Z-matrix is all fixed cartesians, so copy forces.
 Force constants in Cartesian coordinates: 
                1             2             3             4             5 
      1  0.133195D+00
      2 -0.233950D-01  0.988980D-01
      3 -0.196884D+00  0.301768D-01  0.165140D+01
      4 -0.488355D-01  0.153948D-01  0.893033D-01  0.376900D-01
      5  0.217167D-01 -0.482037D-01 -0.558976D-01 -0.998349D-02  0.262939D-01
      6  0.127592D+00 -0.256564D-01 -0.108856D+01 -0.134714D+00  0.373243D-01
      7 -0.727088D-01  0.339970D-01  0.790842D-01  0.804502D-02 -0.254153D-01
      8  0.268089D-01 -0.103331D-01  0.486453D-01 -0.149383D-01 -0.702767D-03
      9  0.776656D-01 -0.268992D-01 -0.510666D+00  0.481336D-01  0.253862D-01
     10  0.692751D-02  0.896204D-03  0.373311D-01 -0.156053D-02 -0.110431D-04
     11  0.634091D-02 -0.127686D-01 -0.203096D-02 -0.163326D-02  0.689351D-02
     12 -0.246316D-01  0.129054D-02 -0.617318D-01  0.119907D-02  0.214016D-03
     13 -0.185780D-01 -0.268930D-01 -0.883483D-02  0.466103D-02  0.136931D-01
     14 -0.314715D-01 -0.275927D-01 -0.208935D-01  0.111603D-01  0.157190D-01
     15  0.162575D-01  0.210883D-01  0.955310D-02 -0.392226D-02 -0.702700D-02
                6             7             8             9            10 
      6  0.113756D+01
      7 -0.272534D-01  0.313075D+00
      8 -0.609674D-01 -0.337337D-01 -0.249132D-01
      9 -0.423782D-01  0.142943D+00  0.333664D-01  0.739973D+00
     10  0.152819D-02 -0.270208D+00 -0.186711D-01 -0.232378D+00  0.263753D+00
     11 -0.256382D-03 -0.120486D-01 -0.544997D-02  0.107107D-01  0.112302D-01
     12  0.944618D-02 -0.175183D+00  0.111578D-02 -0.182415D+00  0.196307D+00
     13  0.328466D-01  0.217969D-01  0.405343D-01 -0.363640D-01  0.108853D-02
     14  0.495558D-01  0.372006D-01  0.413990D-01 -0.425642D-01  0.655578D-02
     15 -0.160705D-01 -0.195905D-01 -0.221601D-01 -0.451453D-02 -0.278765D-02
               11            12            13            14            15 
     11  0.103236D-01
     12 -0.281128D-02  0.232196D+00
     13 -0.388919D-02  0.230930D-02 -0.896845D-02
     14  0.100146D-02  0.190944D-03 -0.234452D-01 -0.305269D-01
     15 -0.561212D-02  0.250412D-02  0.100429D-01  0.137109D-01  0.852784D-02
 Leave Link  716 at Fri Apr 25 17:09:50 2014, MaxMem=   65536000 cpu:       0.2
 (Enter /apps/gaussian/g09/l103.exe)

 GradGradGradGradGradGradGradGradGradGradGradGradGradGradGradGradGradGrad
 Berny optimization.
 Search for a local minimum.
 Step number   1 out of a maximum of    2
 All quantities printed in internal units (Hartrees-Bohrs-Radians)
 Second derivative matrix not updated -- analytic derivatives used.
 The second derivative matrix:
                          X1        Y1        Z1        X2        Y2
           X1           0.13319
           Y1          -0.02339   0.09890
           Z1          -0.19688   0.03018   1.65140
           X2          -0.04884   0.01539   0.08930   0.03769
           Y2           0.02172  -0.04820  -0.05590  -0.00998   0.02629
           Z2           0.12759  -0.02566  -1.08856  -0.13471   0.03732
           X3          -0.07271   0.03400   0.07908   0.00805  -0.02542
           Y3           0.02681  -0.01033   0.04865  -0.01494  -0.00070
           Z3           0.07767  -0.02690  -0.51067   0.04813   0.02539
           X4           0.00693   0.00090   0.03733  -0.00156  -0.00001
           Y4           0.00634  -0.01277  -0.00203  -0.00163   0.00689
           Z4          -0.02463   0.00129  -0.06173   0.00120   0.00021
           X5          -0.01858  -0.02689  -0.00883   0.00466   0.01369
           Y5          -0.03147  -0.02759  -0.02089   0.01116   0.01572
           Z5           0.01626   0.02109   0.00955  -0.00392  -0.00703
                          Z2        X3        Y3        Z3        X4
           Z2           1.13756
           X3          -0.02725   0.31308
           Y3          -0.06097  -0.03373  -0.02491
           Z3          -0.04238   0.14294   0.03337   0.73997
           X4           0.00153  -0.27021  -0.01867  -0.23238   0.26375
           Y4          -0.00026  -0.01205  -0.00545   0.01071   0.01123
           Z4           0.00945  -0.17518   0.00112  -0.18241   0.19631
           X5           0.03285   0.02180   0.04053  -0.03636   0.00109
           Y5           0.04956   0.03720   0.04140  -0.04256   0.00656
           Z5          -0.01607  -0.01959  -0.02216  -0.00451  -0.00279
                          Y4        Z4        X5        Y5        Z5
           Y4           0.01032
           Z4          -0.00281   0.23220
           X5          -0.00389   0.00231  -0.00897
           Y5           0.00100   0.00019  -0.02345  -0.03053
           Z5          -0.00561   0.00250   0.01004   0.01371   0.00853
     Eigenvalues ---   -0.13694   0.01674   0.02128   0.06121   0.12642
     Eigenvalues ---    0.19712   0.53716   1.02281   2.63050
 Eigenvalue     1 is  -1.37D-01 should be greater than     0.000000 Eigenvector:
                          Y5        X5        Y3        Z5        Y1
   1                   -0.68721  -0.40759   0.38800   0.22141  -0.21015
                          X1        X3        X4        X2        Y2
   1                   -0.18300   0.18114   0.12248   0.10962   0.09990
 Angle between quadratic step and forces=  21.38 degrees.
 Linear search not attempted -- first point.
 TrRot=  0.002928  0.007565 -0.002784  1.634049 -0.003159 -1.631159
 Variable       Old X    -DE/DX   Delta X   Delta X   Delta X     New X
                                 (Linear)    (Quad)   (Total)
    X1       -0.21491  -0.00533   0.00000  -0.04455  -0.04105  -0.25597
    Y1       -0.13196  -0.00579   0.00000  -0.05238  -0.04611  -0.17807
    Z1        0.17633  -0.00157   0.00000  -0.00451  -0.00783   0.16850
    X2       -0.43865   0.00267   0.00000   0.02178   0.02522  -0.41343
    Y2       -0.03675   0.00307   0.00000   0.02138   0.02041  -0.01634
    Z2        2.31028   0.00342   0.00000   0.01184   0.00908   2.31936
    X3        0.55743   0.00700   0.00000   0.02724   0.02957   0.58700
    Y3       -0.00043   0.01012   0.00000   0.06707   0.08280   0.08237
    Z3       -2.04379  -0.00412   0.00000  -0.01185  -0.01452  -2.05831
    X4       -0.90510   0.00068   0.00000   0.01020   0.01263  -0.89247
    Y4       -0.03040   0.00010   0.00000  -0.02241  -0.00705  -0.03745
    Z4       -3.29199  -0.00046   0.00000   0.00114  -0.00162  -3.29361
    X5        2.24067  -0.00501   0.00000  -0.02205  -0.02636   2.21431
    Y5        2.38037  -0.00751   0.00000  -0.07299  -0.05005   2.33031
    Z5       -2.86074   0.00273   0.00000   0.01081   0.01489  -2.84584
         Item               Value     Threshold  Converged?
 Maximum Force            0.010123     0.000450     NO 
 RMS     Force            0.004835     0.000300     NO 
 Maximum Displacement     0.082802     0.001800     NO 
 RMS     Displacement     0.033250     0.001200     NO 
 Predicted change in Energy=-3.141113D-03
 GradGradGradGradGradGradGradGradGradGradGradGradGradGradGradGradGradGrad

 Leave Link  103 at Fri Apr 25 17:09:50 2014, MaxMem=   65536000 cpu:       0.0
 (Enter /apps/gaussian/g09/l9999.exe)

 Test job not archived.
 1\1\GINC-ROMEO164\Freq\UM06\6-311G(d,p)\H2N3(2)\ROOT\25-Apr-2014\0\\#P
  M06 6-311G** FREQ # GFINPUT IOP(6/7=3) POP=FULL\\reverse IRC, from TS
  reverse1 freq1\\0,2\N,-0.113727,-0.069829,0.093311\N,-0.232122,-0.019
 447,1.222548\N,0.29498,-0.000227,-1.081527\H,-0.478958,-0.016086,-1.74
 2048\H,1.185711,1.259635,-1.513837\\Version=AM64L-G09RevA.02\State=2-A
 \HF=-165.2240095\S2=0.76567\S2-1=0.\S2A=0.750034\RMSD=9.180e-09\RMSF=4
 .835e-03\ZeroPoint=0.0239288\Thermal=0.0275637\Dipole=-0.5926868,-0.13
 16804,-0.5637373\DipoleDeriv=-0.1528955,-0.3509289,-0.0960931,-0.32699
 27,-0.1457826,0.2616809,-0.714646,-0.3717782,1.9654521,-0.0790564,0.07
 76403,-0.0193586,0.1523562,0.0060078,-0.1641083,0.7463485,0.6182459,-1
 .3295551,0.2465976,0.4052321,-0.035793,0.4909142,0.1309409,-0.5773867,
 -0.1602508,-0.340041,-0.7527244,0.1828116,-0.0034617,-0.0855508,-0.035
 2239,0.3105088,0.0601639,0.0669822,0.0512214,0.3117495,-0.1974573,-0.1
 284818,0.2367955,-0.2810538,-0.3016749,0.4196502,0.061566,0.0423519,-0
 .1949221\Polar=21.7846689,9.9098721,21.1340028,-12.7679364,-10.5283829
 ,47.5881284\PG=C01 [X(H2N3)]\NImag=1\\0.13319479,-0.02339500,0.0988980
 4,-0.19688389,0.03017678,1.65140043,-0.04883550,0.01539478,0.08930335,
 0.03768998,0.02171673,-0.04820367,-0.05589755,-0.00998349,0.02629390,0
 .12759242,-0.02565635,-1.08855579,-0.13471381,0.03732431,1.13755838,-0
 .07270881,0.03399702,0.07908425,0.00804502,-0.02541530,-0.02725342,0.3
 1307540,0.02680888,-0.01033308,0.04864525,-0.01493832,-0.00070277,-0.0
 6096740,-0.03373371,-0.02491324,0.07766558,-0.02689923,-0.51066589,0.0
 4813364,0.02538623,-0.04237823,0.14294304,0.03336644,0.73997339,0.0069
 2751,0.00089620,0.03733113,-0.00156053,-0.00001104,0.00152819,-0.27020
 847,-0.01867110,-0.23237826,0.26375296,0.00634091,-0.01276863,-0.00203
 096,-0.00163326,0.00689351,-0.00025638,-0.01204861,-0.00544997,0.01071
 074,0.01123016,0.01032363,-0.02463160,0.00129054,-0.06173185,0.0011990
 7,0.00021402,0.00944618,-0.17518337,0.00111578,-0.18241474,0.19630659,
 -0.00281128,0.23219630,-0.01857798,-0.02689301,-0.00883483,0.00466103,
 0.01369311,0.03284661,0.02179687,0.04053426,-0.03636400,0.00108853,-0.
 00388919,0.00230930,-0.00896845,-0.03147152,-0.02759266,-0.02089352,0.
 01116029,0.01571903,0.04955583,0.03720061,0.04139905,-0.04256417,0.006
 55578,0.00100146,0.00019094,-0.02344516,-0.03052687,0.01625749,0.02108
 827,0.00955310,-0.00392226,-0.00702700,-0.01607053,-0.01959050,-0.0221
 6007,-0.00451453,-0.00278765,-0.00561212,0.00250412,0.01004292,0.01371
 092,0.00852784\\0.00533468,0.00578574,0.00156654,-0.00266532,-0.003066
 61,-0.00342458,-0.00699534,-0.01012334,0.00412361,-0.00068132,-0.00010
 371,0.00046099,0.00500730,0.00750792,-0.00272656\\\@


 A SUCCESSFUL PURSUIT OF SCIENCE MAKES A MAN THE
 BENEFACTOR OF ALL MANKIND OF EVERY AGE.
   --  JOSEPH PRIESTLEY, "EXPERIMENTS AND
 OBSERVATIONS ON DIFFERENT KINDS OF AIR", 1774
 Job cpu time:  0 days  0 hours  1 minutes 52.2 seconds.
 File lengths (MBytes):  RWF=      9 Int=      0 D2E=      0 Chk=      1 Scr=      1
 Normal termination of Gaussian 09 at Fri Apr 25 17:09:51 2014.
************
total 316
drwxrwxr-x 2 henon henon   4096 25 avril 17:09 .
drwxrwxr-x 3 henon henon   4096 25 avril 17:09 ..
-rw-r--r-- 1 henon henon    393 25 avril 17:09 1Rfreq.inp
-rw-rw-r-- 1 henon henon 311199 25 avril 17:09 1Rfreq.out
Run on 12 cores
romeo164
************
