 Entering Gaussian System, Link 0=g09
 Initial command:
 /apps/gaussian/g09/l1.exe /scratch_l/henon/3Rfreq_27664/Gau-27680.inp -scrdir=/scratch_l/henon/3Rfreq_27664/
 Entering Link 1 = /apps/gaussian/g09/l1.exe PID=     27681.
  
 Copyright (c) 1988,1990,1992,1993,1995,1998,2003,2009, Gaussian, Inc.
                  All Rights Reserved.
  
 This is part of the Gaussian(R) 09 program.  It is based on
 the Gaussian(R) 03 system (copyright 2003, Gaussian, Inc.),
 the Gaussian(R) 98 system (copyright 1998, Gaussian, Inc.),
 the Gaussian(R) 94 system (copyright 1995, Gaussian, Inc.),
 the Gaussian 92(TM) system (copyright 1992, Gaussian, Inc.),
 the Gaussian 90(TM) system (copyright 1990, Gaussian, Inc.),
 the Gaussian 88(TM) system (copyright 1988, Gaussian, Inc.),
 the Gaussian 86(TM) system (copyright 1986, Carnegie Mellon
 University), and the Gaussian 82(TM) system (copyright 1983,
 Carnegie Mellon University). Gaussian is a federally registered
 trademark of Gaussian, Inc.
  
 This software contains proprietary and confidential information,
 including trade secrets, belonging to Gaussian, Inc.
  
 This software is provided under written license and may be
 used, copied, transmitted, or stored only in accord with that
 written license.
  
 The following legend is applicable only to US Government
 contracts under FAR:
  
                    RESTRICTED RIGHTS LEGEND
  
 Use, reproduction and disclosure by the US Government is
 subject to restrictions as set forth in subparagraphs (a)
 and (c) of the Commercial Computer Software - Restricted
 Rights clause in FAR 52.227-19.
  
 Gaussian, Inc.
 340 Quinnipiac St., Bldg. 40, Wallingford CT 06492
  
  
 ---------------------------------------------------------------
 Warning -- This program may not be used in any manner that
 competes with the business of Gaussian, Inc. or will provide
 assistance to any competitor of Gaussian, Inc.  The licensee
 of this program is prohibited from giving any competitor of
 Gaussian, Inc. access to this program.  By using this program,
 the user acknowledges that Gaussian, Inc. is engaged in the
 business of creating and licensing software in the field of
 computational chemistry and represents and warrants to the
 licensee that it is not a competitor of Gaussian, Inc. and that
 it will not use this program in any manner prohibited above.
 ---------------------------------------------------------------
  

 Cite this work as:
 Gaussian 09, Revision A.02,
 M. J. Frisch, G. W. Trucks, H. B. Schlegel, G. E. Scuseria, 
 M. A. Robb, J. R. Cheeseman, G. Scalmani, V. Barone, B. Mennucci, 
 G. A. Petersson, H. Nakatsuji, M. Caricato, X. Li, H. P. Hratchian, 
 A. F. Izmaylov, J. Bloino, G. Zheng, J. L. Sonnenberg, M. Hada, 
 M. Ehara, K. Toyota, R. Fukuda, J. Hasegawa, M. Ishida, T. Nakajima, 
 Y. Honda, O. Kitao, H. Nakai, T. Vreven, J. A. Montgomery, Jr., 
 J. E. Peralta, F. Ogliaro, M. Bearpark, J. J. Heyd, E. Brothers, 
 K. N. Kudin, V. N. Staroverov, R. Kobayashi, J. Normand, 
 K. Raghavachari, A. Rendell, J. C. Burant, S. S. Iyengar, J. Tomasi, 
 M. Cossi, N. Rega, J. M. Millam, M. Klene, J. E. Knox, J. B. Cross, 
 V. Bakken, C. Adamo, J. Jaramillo, R. Gomperts, R. E. Stratmann, 
 O. Yazyev, A. J. Austin, R. Cammi, C. Pomelli, J. W. Ochterski, 
 R. L. Martin, K. Morokuma, V. G. Zakrzewski, G. A. Voth, 
 P. Salvador, J. J. Dannenberg, S. Dapprich, A. D. Daniels, 
 O. Farkas, J. B. Foresman, J. V. Ortiz, J. Cioslowski, 
 and D. J. Fox, Gaussian, Inc., Wallingford CT, 2009.
 
 ******************************************
 Gaussian 09:  AM64L-G09RevA.02 11-Jun-2009
                25-Apr-2014 
 ******************************************
 %NPROC=12
 Will use up to   12 processors via shared memory.
 %MEM=500MB
 --------------------------------------------------
 #P M06 6-311G** FREQ # GFINPUT IOP(6/7=3) POP=FULL
 --------------------------------------------------
 1/10=4,30=1,38=1/1,3;
 2/12=2,17=6,18=5,40=1/2;
 3/5=4,6=6,7=101,11=2,16=1,24=10,25=1,30=1,71=2,74=-54/1,2,3;
 4//1;
 5/5=2,38=5,98=1/2;
 8/6=4,10=90,11=11/1;
 11/6=1,8=1,9=11,15=111,16=1/1,2,10;
 10/6=1/2;
 6/7=3,18=1,28=1/1;
 7/8=1,10=1,25=1/1,2,3,16;
 1/10=4,30=1/3;
 99//99;
 Leave Link    1 at Fri Apr 25 17:09:41 2014, MaxMem=   65536000 cpu:       0.4
 (Enter /apps/gaussian/g09/l101.exe)
 ----------------------------------
 reverse IRC, from TS reverse1 freq
 ----------------------------------
 Symbolic Z-matrix:
 Charge =  0 Multiplicity = 2
 7                    -0.1225   -0.07862   0.09067 
 7                    -0.22794  -0.01477   1.22894 
 7                     0.3064    0.01576  -1.0891 
 1                    -0.46463  -0.01632  -1.74998 
 1                     1.0762    1.09471  -1.45269 
 
 NAtoms=      5 NQM=      5 NQMF=      0 NMic=      0 NMicF=      0 NTot=      5.
                    Isotopes and Nuclear Properties:
 (Nuclear quadrupole moments (NQMom) in fm**2, nuclear magnetic moments (NMagM)
  in nuclear magnetons)

  Atom         1           2           3           4           5
 IAtWgt=          14          14          14           1           1
 AtmWgt=  14.0030740  14.0030740  14.0030740   1.0078250   1.0078250
 NucSpn=           2           2           2           1           1
 AtZEff=   0.0000000   0.0000000   0.0000000   0.0000000   0.0000000
 NQMom=    2.0440000   2.0440000   2.0440000   0.0000000   0.0000000
 NMagM=    0.4037610   0.4037610   0.4037610   2.7928460   2.7928460
 Leave Link  101 at Fri Apr 25 17:09:41 2014, MaxMem=   65536000 cpu:       0.5
 (Enter /apps/gaussian/g09/l103.exe)

 GradGradGradGradGradGradGradGradGradGradGradGradGradGradGradGradGradGrad
 Berny optimization.
 Initialization pass.
 Trust Radius=3.00D-01 FncErr=1.00D-07 GrdErr=1.00D-07
 Number of steps in this run=   2 maximum allowed number of steps=   2.
 GradGradGradGradGradGradGradGradGradGradGradGradGradGradGradGradGradGrad

 Leave Link  103 at Fri Apr 25 17:09:41 2014, MaxMem=   65536000 cpu:       0.1
 (Enter /apps/gaussian/g09/l202.exe)
                          Input orientation:                          
 ---------------------------------------------------------------------
 Center     Atomic      Atomic             Coordinates (Angstroms)
 Number     Number       Type             X           Y           Z
 ---------------------------------------------------------------------
      1          7           0       -0.122495   -0.078624    0.090669
      2          7           0       -0.227938   -0.014773    1.228940
      3          7           0        0.306404    0.015762   -1.089101
      4          1           0       -0.464629   -0.016323   -1.749981
      5          1           0        1.076198    1.094706   -1.452686
 ---------------------------------------------------------------------
                    Distance matrix (angstroms):
                    1          2          3          4          5
     1  N    0.000000
     2  N    1.144926   0.000000
     3  N    1.258857   2.379027   0.000000
     4  H    1.873214   2.988310   1.016014   0.000000
     5  H    2.279367   3.181640   1.374371   1.922737   0.000000
 Stoichiometry    H2N3(2)
 Framework group  C1[X(H2N3)]
 Deg. of freedom     9
 Full point group                 C1      NOp   1
 Largest Abelian subgroup         C1      NOp   1
 Largest concise Abelian subgroup C1      NOp   1
                         Standard orientation:                         
 ---------------------------------------------------------------------
 Center     Atomic      Atomic             Coordinates (Angstroms)
 Number     Number       Type             X           Y           Z
 ---------------------------------------------------------------------
      1          7           0        0.194010   -0.129096   -0.002892
      2          7           0        1.317548    0.089751    0.022102
      3          7           0       -1.055184   -0.018682   -0.112638
      4          1           0       -1.523133   -0.751550    0.412921
      5          1           0       -1.671480    1.157738    0.241075
 ---------------------------------------------------------------------
 Rotational constants (GHZ):    192.0103356     11.0410188     10.6071698
 Leave Link  202 at Fri Apr 25 17:09:41 2014, MaxMem=   65536000 cpu:       0.9
 (Enter /apps/gaussian/g09/l301.exe)
 Standard basis: 6-311G(d,p) (5D, 7F)
 Ernie: Thresh=  0.10000D-02 Tol=  0.10000D-05 Strict=F.
 AO basis set in the form of general basis input (Overlap normalization):
      1 0
 S   6 1.00       0.000000000000
      0.6293480000D+04  0.1969788147D-02
      0.9490440000D+03  0.1496128592D-01
      0.2187760000D+03  0.7350053084D-01
      0.6369160000D+02  0.2489367658D+00
      0.1882820000D+02  0.6024594331D+00
      0.2720230000D+01  0.2562017589D+00
 SP   3 1.00       0.000000000000
      0.3063310000D+02  0.1119060795D+00  0.3831191864D-01
      0.7026140000D+01  0.9216666549D+00  0.2374031155D+00
      0.2112050000D+01 -0.2569191826D-02  0.8175923978D+00
 SP   1 1.00       0.000000000000
      0.6840090000D+00  0.1000000000D+01  0.1000000000D+01
 SP   1 1.00       0.000000000000
      0.2008780000D+00  0.1000000000D+01  0.1000000000D+01
 D   1 1.00       0.000000000000
      0.9130000000D+00  0.1000000000D+01
 ****
      2 0
 S   6 1.00       0.000000000000
      0.6293480000D+04  0.1969788147D-02
      0.9490440000D+03  0.1496128592D-01
      0.2187760000D+03  0.7350053084D-01
      0.6369160000D+02  0.2489367658D+00
      0.1882820000D+02  0.6024594331D+00
      0.2720230000D+01  0.2562017589D+00
 SP   3 1.00       0.000000000000
      0.3063310000D+02  0.1119060795D+00  0.3831191864D-01
      0.7026140000D+01  0.9216666549D+00  0.2374031155D+00
      0.2112050000D+01 -0.2569191826D-02  0.8175923978D+00
 SP   1 1.00       0.000000000000
      0.6840090000D+00  0.1000000000D+01  0.1000000000D+01
 SP   1 1.00       0.000000000000
      0.2008780000D+00  0.1000000000D+01  0.1000000000D+01
 D   1 1.00       0.000000000000
      0.9130000000D+00  0.1000000000D+01
 ****
      3 0
 S   6 1.00       0.000000000000
      0.6293480000D+04  0.1969788147D-02
      0.9490440000D+03  0.1496128592D-01
      0.2187760000D+03  0.7350053084D-01
      0.6369160000D+02  0.2489367658D+00
      0.1882820000D+02  0.6024594331D+00
      0.2720230000D+01  0.2562017589D+00
 SP   3 1.00       0.000000000000
      0.3063310000D+02  0.1119060795D+00  0.3831191864D-01
      0.7026140000D+01  0.9216666549D+00  0.2374031155D+00
      0.2112050000D+01 -0.2569191826D-02  0.8175923978D+00
 SP   1 1.00       0.000000000000
      0.6840090000D+00  0.1000000000D+01  0.1000000000D+01
 SP   1 1.00       0.000000000000
      0.2008780000D+00  0.1000000000D+01  0.1000000000D+01
 D   1 1.00       0.000000000000
      0.9130000000D+00  0.1000000000D+01
 ****
      4 0
 S   3 1.00       0.000000000000
      0.3386500000D+02  0.2549381454D-01
      0.5094790000D+01  0.1903731086D+00
      0.1158790000D+01  0.8521614860D+00
 S   1 1.00       0.000000000000
      0.3258400000D+00  0.1000000000D+01
 S   1 1.00       0.000000000000
      0.1027410000D+00  0.1000000000D+01
 P   1 1.00       0.000000000000
      0.7500000000D+00  0.1000000000D+01
 ****
      5 0
 S   3 1.00       0.000000000000
      0.3386500000D+02  0.2549381454D-01
      0.5094790000D+01  0.1903731086D+00
      0.1158790000D+01  0.8521614860D+00
 S   1 1.00       0.000000000000
      0.3258400000D+00  0.1000000000D+01
 S   1 1.00       0.000000000000
      0.1027410000D+00  0.1000000000D+01
 P   1 1.00       0.000000000000
      0.7500000000D+00  0.1000000000D+01
 ****

 There are    66 symmetry adapted basis functions of A   symmetry.
 Integral buffers will be    131072 words long.
 Raffenetti 2 integral format.
 Two-electron integral symmetry is turned on.
    66 basis functions,   112 primitive gaussians,    69 cartesian basis functions
    12 alpha electrons       11 beta electrons
       nuclear repulsion energy        66.7672882747 Hartrees.
 IExCor= 4235 DFT=T Ex+Corr=M06 ExCW=0 ScaHFX=  0.270000
 ScaDFX=  1.000000  1.000000  1.000000  1.000000 ScalE2=  1.000000  1.000000
 IRadAn=      0 IRanWt=     -1 IRanGd=            0 ICorTp=0
 NAtoms=    5 NActive=    5 NUniq=    5 SFac= 7.50D-01 NAtFMM=   80 NAOKFM=F Big=F
 Leave Link  301 at Fri Apr 25 17:09:41 2014, MaxMem=   65536000 cpu:       0.4
 (Enter /apps/gaussian/g09/l302.exe)
 NPDir=0 NMtPBC=     1 NCelOv=     1 NCel=       1 NClECP=     1 NCelD=      1
         NCelK=      1 NCelE2=     1 NClLst=     1 CellRange=     0.0.
 One-electron integrals computed using PRISM.
 NBasis=    66 RedAO= T  NBF=    66
 NBsUse=    66 1.00D-06 NBFU=    66
 Precomputing XC quadrature grid using
 IXCGrd= 2 IRadAn=           0 IRanWt=          -1 IRanGd=           0 AccXCQ= 1.00D-10.
 NRdTot=     311 NPtTot=       39306 NUsed=       41561 NTot=       41593
 NSgBfM=    69    69    69    69    69 NAtAll=     5     5.
 Leave Link  302 at Fri Apr 25 17:09:41 2014, MaxMem=   65536000 cpu:       2.4
 (Enter /apps/gaussian/g09/l303.exe)
 DipDrv:  MaxL=1.
 Leave Link  303 at Fri Apr 25 17:09:41 2014, MaxMem=   65536000 cpu:       0.1
 (Enter /apps/gaussian/g09/l401.exe)
 Harris functional with IExCor= 1009 diagonalized for initial guess.
 ExpMin= 1.03D-01 ExpMax= 6.29D+03 ExpMxC= 9.49D+02 IAcc=1 IRadAn=         1 AccDes= 0.00D+00
 HarFok:  IExCor= 1009 AccDes= 0.00D+00 IRadAn=         1 IDoV= 1
 ScaDFX=  1.000000  1.000000  1.000000  1.000000
 FoFCou: FMM=F IPFlag=           0 FMFlag=      100000 FMFlg1=           0
         NFxFlg=           0 DoJE=T BraDBF=F KetDBF=T FulRan=T
         Omega=  0.000000  0.000000  1.000000  0.000000  0.000000 ICntrl=     500 IOpCl=  0
         NMat0=    1 NMatS0=    1 NMatT0=    0 NMatD0=    1 NMtDS0=    0 NMtDT0=    0
         I1Cent=           4 NGrid=           0.
 Petite list used in FoFCou.
 Harris En= -165.190425021209    
 Initial guess orbital symmetries:
 Alpha Orbitals:
       Occupied  (A) (A) (A) (A) (A) (A) (A) (A) (A) (A) (A) (A)
       Virtual   (A) (A) (A) (A) (A) (A) (A) (A) (A) (A) (A) (A)
                 (A) (A) (A) (A) (A) (A) (A) (A) (A) (A) (A) (A)
                 (A) (A) (A) (A) (A) (A) (A) (A) (A) (A) (A) (A)
                 (A) (A) (A) (A) (A) (A) (A) (A) (A) (A) (A) (A)
                 (A) (A) (A) (A) (A) (A)
 Beta  Orbitals:
       Occupied  (A) (A) (A) (A) (A) (A) (A) (A) (A) (A) (A)
       Virtual   (A) (A) (A) (A) (A) (A) (A) (A) (A) (A) (A) (A)
                 (A) (A) (A) (A) (A) (A) (A) (A) (A) (A) (A) (A)
                 (A) (A) (A) (A) (A) (A) (A) (A) (A) (A) (A) (A)
                 (A) (A) (A) (A) (A) (A) (A) (A) (A) (A) (A) (A)
                 (A) (A) (A) (A) (A) (A) (A)
 The electronic state of the initial guess is 2-A.
 Initial guess <Sx>= 0.0000 <Sy>= 0.0000 <Sz>= 0.5000 <S**2>= 0.7500 S= 0.5000
 Leave Link  401 at Fri Apr 25 17:09:42 2014, MaxMem=   65536000 cpu:       2.8
 (Enter /apps/gaussian/g09/l502.exe)
 UHF open shell SCF:
 Requested convergence on RMS density matrix=1.00D-08 within 128 cycles.
 Requested convergence on MAX density matrix=1.00D-06.
 Requested convergence on             energy=1.00D-06.
 No special actions if energy rises.
 Using DIIS extrapolation, IDIIS=  1040.
 Integral symmetry usage will be decided dynamically.
        41503 words used for storage of precomputed grid.
 Keep R1 and R2 ints in memory in canonical form, NReq=6799076.
 IEnd=       75273 IEndB=       75273 NGot=    65536000 MDV=    59647530
 LenX=    59647530 LenY=    59642328
 Symmetry not used in FoFDir.
 MinBra= 0 MaxBra= 2 Meth= 1.
 IRaf=       0 NMat=   1 IRICut=       1 DoRegI=T DoRafI=F ISym2E= 0 JSym2E=0.
 Integral accuracy reduced to 1.0D-05 until final iterations.

 Cycle   1  Pass 0  IDiag  1:
 E= -165.189514066660    
 DIIS: error= 3.11D-02 at cycle   1 NSaved=   1.
 NSaved= 1 IEnMin= 1 EnMin= -165.189514066660     IErMin= 1 ErrMin= 3.11D-02
 ErrMax= 3.11D-02 EMaxC= 1.00D-01 BMatC= 1.99D-01 BMatP= 1.99D-01
 IDIUse=3 WtCom= 6.89D-01 WtEn= 3.11D-01
 Coeff-Com:  0.100D+01
 Coeff-En:   0.100D+01
 Coeff:      0.100D+01
 Gap=     0.165 Goal=   None    Shift=    0.000
 Gap=     0.245 Goal=   None    Shift=    0.000
 GapD=    0.165 DampG=1.000 DampE=0.500 DampFc=0.5000 IDamp=-1.
 Damping current iteration by 5.00D-01
 RMSDP=9.47D-03 MaxDP=2.51D-01              OVMax= 3.37D-01

 Cycle   2  Pass 0  IDiag  1:
 E= -165.192734747613     Delta-E=       -0.003220680953 Rises=F Damp=T
 DIIS: error= 2.08D-02 at cycle   2 NSaved=   2.
 NSaved= 2 IEnMin= 2 EnMin= -165.192734747613     IErMin= 2 ErrMin= 2.08D-02
 ErrMax= 2.08D-02 EMaxC= 1.00D-01 BMatC= 6.36D-02 BMatP= 1.99D-01
 IDIUse=3 WtCom= 7.92D-01 WtEn= 2.08D-01
 Coeff-Com:  0.315D+00 0.685D+00
 Coeff-En:   0.471D+00 0.529D+00
 Coeff:      0.347D+00 0.653D+00
 Gap=     0.147 Goal=   None    Shift=    0.000
 Gap=     0.253 Goal=   None    Shift=    0.000
 RMSDP=2.64D-03 MaxDP=5.10D-02 DE=-3.22D-03 OVMax= 2.36D-01

 Cycle   3  Pass 0  IDiag  1:
 E= -165.226874523708     Delta-E=       -0.034139776095 Rises=F Damp=F
 DIIS: error= 1.78D-02 at cycle   3 NSaved=   3.
 NSaved= 3 IEnMin= 3 EnMin= -165.226874523708     IErMin= 3 ErrMin= 1.78D-02
 ErrMax= 1.78D-02 EMaxC= 1.00D-01 BMatC= 4.30D-02 BMatP= 6.36D-02
 IDIUse=3 WtCom= 8.22D-01 WtEn= 1.78D-01
 Coeff-Com:  0.136D+00 0.420D+00 0.444D+00
 Coeff-En:   0.000D+00 0.000D+00 0.100D+01
 Coeff:      0.111D+00 0.345D+00 0.543D+00
 Gap=     0.142 Goal=   None    Shift=    0.000
 Gap=     0.266 Goal=   None    Shift=    0.000
 RMSDP=1.56D-03 MaxDP=2.71D-02 DE=-3.41D-02 OVMax= 5.67D-02

 Cycle   4  Pass 0  IDiag  1:
 E= -165.232831526239     Delta-E=       -0.005957002531 Rises=F Damp=F
 DIIS: error= 1.13D-02 at cycle   4 NSaved=   4.
 NSaved= 4 IEnMin= 4 EnMin= -165.232831526239     IErMin= 4 ErrMin= 1.13D-02
 ErrMax= 1.13D-02 EMaxC= 1.00D-01 BMatC= 1.57D-02 BMatP= 4.30D-02
 IDIUse=3 WtCom= 8.87D-01 WtEn= 1.13D-01
 Coeff-Com:  0.315D-01 0.214D-01 0.363D+00 0.584D+00
 Coeff-En:   0.000D+00 0.000D+00 0.309D+00 0.691D+00
 Coeff:      0.280D-01 0.190D-01 0.357D+00 0.596D+00
 Gap=     0.146 Goal=   None    Shift=    0.000
 Gap=     0.260 Goal=   None    Shift=    0.000
 RMSDP=7.24D-04 MaxDP=1.21D-02 DE=-5.96D-03 OVMax= 2.49D-02

 Cycle   5  Pass 0  IDiag  1:
 E= -165.236143211724     Delta-E=       -0.003311685485 Rises=F Damp=F
 DIIS: error= 1.20D-03 at cycle   5 NSaved=   5.
 NSaved= 5 IEnMin= 5 EnMin= -165.236143211724     IErMin= 5 ErrMin= 1.20D-03
 ErrMax= 1.20D-03 EMaxC= 1.00D-01 BMatC= 3.13D-04 BMatP= 1.57D-02
 IDIUse=3 WtCom= 9.88D-01 WtEn= 1.20D-02
 Coeff-Com:  0.364D-02-0.161D-01 0.119D+00 0.258D+00 0.635D+00
 Coeff-En:   0.000D+00 0.000D+00 0.000D+00 0.000D+00 0.100D+01
 Coeff:      0.360D-02-0.159D-01 0.118D+00 0.255D+00 0.640D+00
 Gap=     0.147 Goal=   None    Shift=    0.000
 Gap=     0.260 Goal=   None    Shift=    0.000
 RMSDP=2.09D-04 MaxDP=4.37D-03 DE=-3.31D-03 OVMax= 9.92D-03

 Cycle   6  Pass 0  IDiag  1:
 E= -165.236223895149     Delta-E=       -0.000080683426 Rises=F Damp=F
 DIIS: error= 8.10D-04 at cycle   6 NSaved=   6.
 NSaved= 6 IEnMin= 6 EnMin= -165.236223895149     IErMin= 6 ErrMin= 8.10D-04
 ErrMax= 8.10D-04 EMaxC= 1.00D-01 BMatC= 9.67D-05 BMatP= 3.13D-04
 IDIUse=3 WtCom= 9.92D-01 WtEn= 8.10D-03
 Coeff-Com: -0.650D-02-0.113D-01-0.443D-01-0.538D-01 0.350D+00 0.765D+00
 Coeff-En:   0.000D+00 0.000D+00 0.000D+00 0.000D+00 0.127D-01 0.987D+00
 Coeff:     -0.645D-02-0.112D-01-0.439D-01-0.533D-01 0.348D+00 0.767D+00
 Gap=     0.148 Goal=   None    Shift=    0.000
 Gap=     0.261 Goal=   None    Shift=    0.000
 RMSDP=1.37D-04 MaxDP=2.87D-03 DE=-8.07D-05 OVMax= 5.19D-03

 Cycle   7  Pass 0  IDiag  1:
 E= -165.236267532384     Delta-E=       -0.000043637235 Rises=F Damp=F
 DIIS: error= 3.01D-04 at cycle   7 NSaved=   7.
 NSaved= 7 IEnMin= 7 EnMin= -165.236267532384     IErMin= 7 ErrMin= 3.01D-04
 ErrMax= 3.01D-04 EMaxC= 1.00D-01 BMatC= 1.14D-05 BMatP= 9.67D-05
 IDIUse=3 WtCom= 9.97D-01 WtEn= 3.01D-03
 Coeff-Com: -0.164D-02 0.273D-02-0.307D-01-0.602D-01-0.159D+00 0.153D+00
 Coeff-Com:  0.110D+01
 Coeff-En:   0.000D+00 0.000D+00 0.000D+00 0.000D+00 0.000D+00 0.000D+00
 Coeff-En:   0.100D+01
 Coeff:     -0.164D-02 0.272D-02-0.306D-01-0.601D-01-0.159D+00 0.153D+00
 Coeff:      0.110D+01
 Gap=     0.148 Goal=   None    Shift=    0.000
 Gap=     0.261 Goal=   None    Shift=    0.000
 RMSDP=6.72D-05 MaxDP=1.12D-03 DE=-4.36D-05 OVMax= 2.75D-03

 Cycle   8  Pass 0  IDiag  1:
 E= -165.236277436877     Delta-E=       -0.000009904492 Rises=F Damp=F
 DIIS: error= 1.07D-04 at cycle   8 NSaved=   8.
 NSaved= 8 IEnMin= 8 EnMin= -165.236277436877     IErMin= 8 ErrMin= 1.07D-04
 ErrMax= 1.07D-04 EMaxC= 1.00D-01 BMatC= 6.96D-07 BMatP= 1.14D-05
 IDIUse=3 WtCom= 9.99D-01 WtEn= 1.07D-03
 Coeff-Com:  0.801D-03 0.376D-03 0.275D-02 0.268D-02-0.380D-01-0.663D-01
 Coeff-Com:  0.234D-01 0.107D+01
 Coeff-En:   0.000D+00 0.000D+00 0.000D+00 0.000D+00 0.000D+00 0.000D+00
 Coeff-En:   0.000D+00 0.100D+01
 Coeff:      0.800D-03 0.376D-03 0.274D-02 0.267D-02-0.380D-01-0.662D-01
 Coeff:      0.234D-01 0.107D+01
 Gap=     0.148 Goal=   None    Shift=    0.000
 Gap=     0.261 Goal=   None    Shift=    0.000
 RMSDP=1.91D-05 MaxDP=2.98D-04 DE=-9.90D-06 OVMax= 9.58D-04

 Cycle   9  Pass 0  IDiag  1:
 E= -165.236278388253     Delta-E=       -0.000000951376 Rises=F Damp=F
 DIIS: error= 3.96D-05 at cycle   9 NSaved=   9.
 NSaved= 9 IEnMin= 9 EnMin= -165.236278388253     IErMin= 9 ErrMin= 3.96D-05
 ErrMax= 3.96D-05 EMaxC= 1.00D-01 BMatC= 1.20D-07 BMatP= 6.96D-07
 IDIUse=1 WtCom= 1.00D+00 WtEn= 0.00D+00
 Coeff-Com:  0.262D-03-0.350D-03 0.457D-02 0.908D-02 0.220D-01-0.294D-01
 Coeff-Com: -0.157D+00 0.968D-02 0.114D+01
 Coeff:      0.262D-03-0.350D-03 0.457D-02 0.908D-02 0.220D-01-0.294D-01
 Coeff:     -0.157D+00 0.968D-02 0.114D+01
 Gap=     0.148 Goal=   None    Shift=    0.000
 Gap=     0.261 Goal=   None    Shift=    0.000
 RMSDP=8.85D-06 MaxDP=1.56D-04 DE=-9.51D-07 OVMax= 4.84D-04

 Initial convergence to 1.0D-05 achieved.  Increase integral accuracy.
 Cycle  10  Pass 1  IDiag  1:
 E= -165.236230873383     Delta-E=        0.000047514870 Rises=F Damp=F
 DIIS: error= 1.84D-04 at cycle   1 NSaved=   1.
 NSaved= 1 IEnMin= 1 EnMin= -165.236230873383     IErMin= 1 ErrMin= 1.84D-04
 ErrMax= 1.84D-04 EMaxC= 1.00D-01 BMatC= 1.55D-05 BMatP= 1.55D-05
 IDIUse=3 WtCom= 9.98D-01 WtEn= 1.84D-03
 Coeff-Com:  0.100D+01
 Coeff-En:   0.100D+01
 Coeff:      0.100D+01
 Gap=     0.148 Goal=   None    Shift=    0.000
 Gap=     0.261 Goal=   None    Shift=    0.000
 RMSDP=8.85D-06 MaxDP=1.56D-04 DE= 4.75D-05 OVMax= 5.39D-04

 Cycle  11  Pass 1  IDiag  1:
 E= -165.236233992715     Delta-E=       -0.000003119333 Rises=F Damp=F
 DIIS: error= 2.62D-05 at cycle   2 NSaved=   2.
 NSaved= 2 IEnMin= 2 EnMin= -165.236233992715     IErMin= 2 ErrMin= 2.62D-05
 ErrMax= 2.62D-05 EMaxC= 1.00D-01 BMatC= 1.42D-07 BMatP= 1.55D-05
 IDIUse=1 WtCom= 1.00D+00 WtEn= 0.00D+00
 Coeff-Com:  0.424D-02 0.996D+00
 Coeff:      0.424D-02 0.996D+00
 Gap=     0.148 Goal=   None    Shift=    0.000
 Gap=     0.261 Goal=   None    Shift=    0.000
 RMSDP=8.62D-06 MaxDP=1.29D-04 DE=-3.12D-06 OVMax= 2.47D-04

 Cycle  12  Pass 1  IDiag  1:
 E= -165.236233981027     Delta-E=        0.000000011688 Rises=F Damp=F
 DIIS: error= 2.56D-05 at cycle   3 NSaved=   3.
 NSaved= 3 IEnMin= 2 EnMin= -165.236233992715     IErMin= 3 ErrMin= 2.56D-05
 ErrMax= 2.56D-05 EMaxC= 1.00D-01 BMatC= 2.13D-07 BMatP= 1.42D-07
 IDIUse=1 WtCom= 1.00D+00 WtEn= 0.00D+00
 Coeff-Com: -0.560D-02 0.562D+00 0.444D+00
 Coeff:     -0.560D-02 0.562D+00 0.444D+00
 Gap=     0.148 Goal=   None    Shift=    0.000
 Gap=     0.261 Goal=   None    Shift=    0.000
 RMSDP=4.95D-06 MaxDP=1.08D-04 DE= 1.17D-08 OVMax= 2.35D-04

 Cycle  13  Pass 1  IDiag  1:
 E= -165.236234029422     Delta-E=       -0.000000048395 Rises=F Damp=F
 DIIS: error= 1.42D-05 at cycle   4 NSaved=   4.
 NSaved= 4 IEnMin= 4 EnMin= -165.236234029422     IErMin= 4 ErrMin= 1.42D-05
 ErrMax= 1.42D-05 EMaxC= 1.00D-01 BMatC= 2.14D-08 BMatP= 1.42D-07
 IDIUse=1 WtCom= 1.00D+00 WtEn= 0.00D+00
 Coeff-Com: -0.397D-02 0.113D+00 0.245D+00 0.646D+00
 Coeff:     -0.397D-02 0.113D+00 0.245D+00 0.646D+00
 Gap=     0.148 Goal=   None    Shift=    0.000
 Gap=     0.261 Goal=   None    Shift=    0.000
 RMSDP=1.18D-06 MaxDP=1.98D-05 DE=-4.84D-08 OVMax= 5.26D-05

 Cycle  14  Pass 1  IDiag  1:
 E= -165.236234033035     Delta-E=       -0.000000003613 Rises=F Damp=F
 DIIS: error= 8.65D-06 at cycle   5 NSaved=   5.
 NSaved= 5 IEnMin= 5 EnMin= -165.236234033035     IErMin= 5 ErrMin= 8.65D-06
 ErrMax= 8.65D-06 EMaxC= 1.00D-01 BMatC= 9.25D-09 BMatP= 2.14D-08
 IDIUse=1 WtCom= 1.00D+00 WtEn= 0.00D+00
 Coeff-Com: -0.209D-02 0.913D-02 0.131D+00 0.454D+00 0.407D+00
 Coeff:     -0.209D-02 0.913D-02 0.131D+00 0.454D+00 0.407D+00
 Gap=     0.148 Goal=   None    Shift=    0.000
 Gap=     0.261 Goal=   None    Shift=    0.000
 RMSDP=6.01D-07 MaxDP=1.03D-05 DE=-3.61D-09 OVMax= 2.36D-05

 Cycle  15  Pass 1  IDiag  1:
 E= -165.236234034930     Delta-E=       -0.000000001895 Rises=F Damp=F
 DIIS: error= 3.81D-06 at cycle   6 NSaved=   6.
 NSaved= 6 IEnMin= 6 EnMin= -165.236234034930     IErMin= 6 ErrMin= 3.81D-06
 ErrMax= 3.81D-06 EMaxC= 1.00D-01 BMatC= 9.44D-10 BMatP= 9.25D-09
 IDIUse=1 WtCom= 1.00D+00 WtEn= 0.00D+00
 Coeff-Com: -0.399D-03-0.201D-01 0.224D-01 0.878D-01 0.232D+00 0.679D+00
 Coeff:     -0.399D-03-0.201D-01 0.224D-01 0.878D-01 0.232D+00 0.679D+00
 Gap=     0.148 Goal=   None    Shift=    0.000
 Gap=     0.261 Goal=   None    Shift=    0.000
 RMSDP=2.92D-07 MaxDP=4.89D-06 DE=-1.89D-09 OVMax= 1.52D-05

 Cycle  16  Pass 1  IDiag  1:
 E= -165.236234035315     Delta-E=       -0.000000000384 Rises=F Damp=F
 DIIS: error= 1.36D-06 at cycle   7 NSaved=   7.
 NSaved= 7 IEnMin= 7 EnMin= -165.236234035315     IErMin= 7 ErrMin= 1.36D-06
 ErrMax= 1.36D-06 EMaxC= 1.00D-01 BMatC= 2.00D-10 BMatP= 9.44D-10
 IDIUse=1 WtCom= 1.00D+00 WtEn= 0.00D+00
 Coeff-Com:  0.597D-03-0.153D-01-0.309D-01-0.109D+00-0.448D-01 0.293D+00
 Coeff-Com:  0.906D+00
 Coeff:      0.597D-03-0.153D-01-0.309D-01-0.109D+00-0.448D-01 0.293D+00
 Coeff:      0.906D+00
 Gap=     0.148 Goal=   None    Shift=    0.000
 Gap=     0.261 Goal=   None    Shift=    0.000
 RMSDP=2.46D-07 MaxDP=4.36D-06 DE=-3.84D-10 OVMax= 9.85D-06

 Cycle  17  Pass 1  IDiag  1:
 E= -165.236234035477     Delta-E=       -0.000000000162 Rises=F Damp=F
 DIIS: error= 5.06D-07 at cycle   8 NSaved=   8.
 NSaved= 8 IEnMin= 8 EnMin= -165.236234035477     IErMin= 8 ErrMin= 5.06D-07
 ErrMax= 5.06D-07 EMaxC= 1.00D-01 BMatC= 3.72D-11 BMatP= 2.00D-10
 IDIUse=1 WtCom= 1.00D+00 WtEn= 0.00D+00
 Coeff-Com:  0.284D-03 0.296D-02-0.137D-01-0.560D-01-0.948D-01-0.149D+00
 Coeff-Com:  0.285D+00 0.103D+01
 Coeff:      0.284D-03 0.296D-02-0.137D-01-0.560D-01-0.948D-01-0.149D+00
 Coeff:      0.285D+00 0.103D+01
 Gap=     0.148 Goal=   None    Shift=    0.000
 Gap=     0.261 Goal=   None    Shift=    0.000
 RMSDP=1.27D-07 MaxDP=2.39D-06 DE=-1.62D-10 OVMax= 7.20D-06

 Cycle  18  Pass 1  IDiag  1:
 E= -165.236234035517     Delta-E=       -0.000000000040 Rises=F Damp=F
 DIIS: error= 1.54D-07 at cycle   9 NSaved=   9.
 NSaved= 9 IEnMin= 9 EnMin= -165.236234035517     IErMin= 9 ErrMin= 1.54D-07
 ErrMax= 1.54D-07 EMaxC= 1.00D-01 BMatC= 2.71D-12 BMatP= 3.72D-11
 IDIUse=1 WtCom= 1.00D+00 WtEn= 0.00D+00
 Coeff-Com: -0.393D-04 0.140D-02 0.499D-03 0.873D-02 0.256D-02-0.375D-01
 Coeff-Com: -0.825D-01 0.483D-01 0.106D+01
 Coeff:     -0.393D-04 0.140D-02 0.499D-03 0.873D-02 0.256D-02-0.375D-01
 Coeff:     -0.825D-01 0.483D-01 0.106D+01
 Gap=     0.148 Goal=   None    Shift=    0.000
 Gap=     0.261 Goal=   None    Shift=    0.000
 RMSDP=3.28D-08 MaxDP=5.19D-07 DE=-4.04D-11 OVMax= 1.52D-06

 Cycle  19  Pass 1  IDiag  1:
 E= -165.236234035521     Delta-E=       -0.000000000003 Rises=F Damp=F
 DIIS: error= 7.76D-08 at cycle  10 NSaved=  10.
 NSaved=10 IEnMin=10 EnMin= -165.236234035521     IErMin=10 ErrMin= 7.76D-08
 ErrMax= 7.76D-08 EMaxC= 1.00D-01 BMatC= 6.47D-13 BMatP= 2.71D-12
 IDIUse=1 WtCom= 1.00D+00 WtEn= 0.00D+00
 Coeff-Com: -0.350D-04-0.243D-03 0.606D-03 0.760D-02 0.138D-01 0.236D-01
 Coeff-Com: -0.331D-01-0.140D+00-0.738D-01 0.120D+01
 Coeff:     -0.350D-04-0.243D-03 0.606D-03 0.760D-02 0.138D-01 0.236D-01
 Coeff:     -0.331D-01-0.140D+00-0.738D-01 0.120D+01
 Gap=     0.148 Goal=   None    Shift=    0.000
 Gap=     0.261 Goal=   None    Shift=    0.000
 RMSDP=1.67D-08 MaxDP=3.27D-07 DE=-3.41D-12 OVMax= 7.07D-07

 Cycle  20  Pass 1  IDiag  1:
 E= -165.236234035520     Delta-E=        0.000000000000 Rises=F Damp=F
 DIIS: error= 2.37D-08 at cycle  11 NSaved=  11.
 NSaved=11 IEnMin=10 EnMin= -165.236234035521     IErMin=11 ErrMin= 2.37D-08
 ErrMax= 2.37D-08 EMaxC= 1.00D-01 BMatC= 5.56D-14 BMatP= 6.47D-13
 IDIUse=1 WtCom= 1.00D+00 WtEn= 0.00D+00
 Coeff-Com:  0.109D-05-0.175D-03-0.298D-03-0.234D-03 0.398D-03 0.658D-02
 Coeff-Com:  0.100D-01-0.245D-01-0.131D+00 0.938D-01 0.105D+01
 Coeff:      0.109D-05-0.175D-03-0.298D-03-0.234D-03 0.398D-03 0.658D-02
 Coeff:      0.100D-01-0.245D-01-0.131D+00 0.938D-01 0.105D+01
 Gap=     0.148 Goal=   None    Shift=    0.000
 Gap=     0.261 Goal=   None    Shift=    0.000
 RMSDP=6.15D-09 MaxDP=1.38D-07 DE= 4.55D-13 OVMax= 2.42D-07

 SCF Done:  E(UM06) =  -165.236234036     A.U. after   20 cycles
             Convg  =    0.6154D-08             -V/T =  2.0022
 <Sx>= 0.0000 <Sy>= 0.0000 <Sz>= 0.5000 <S**2>= 0.7608 S= 0.5054
 <L.S>=  0.00000000000    
 KE= 1.648811936567D+02 PE=-5.202519832692D+02 EE= 1.233672673023D+02
 Annihilation of the first spin contaminant:
 S**2 before annihilation     0.7608,   after     0.7500
 Leave Link  502 at Fri Apr 25 17:09:43 2014, MaxMem=   65536000 cpu:      17.3
 (Enter /apps/gaussian/g09/l801.exe)
 Range of M.O.s used for correlation:     1    66
 NBasis=    66 NAE=    12 NBE=    11 NFC=     0 NFV=     0
 NROrb=     66 NOA=    12 NOB=    11 NVA=    54 NVB=    55
 Leave Link  801 at Fri Apr 25 17:09:43 2014, MaxMem=   65536000 cpu:       0.1
 (Enter /apps/gaussian/g09/l1101.exe)
 Using compressed storage, NAtomX=     5.
 Will process   6 centers per pass.
 Leave Link 1101 at Fri Apr 25 17:09:43 2014, MaxMem=   65536000 cpu:       1.2
 (Enter /apps/gaussian/g09/l1102.exe)
 Symmetrizing basis deriv contribution to polar:
 IMax=3 JMax=2 DiffMx= 0.00D+00
 Leave Link 1102 at Fri Apr 25 17:09:43 2014, MaxMem=   65536000 cpu:       0.2
 (Enter /apps/gaussian/g09/l1110.exe)
 Forming Gx(P) for the SCF density, NAtomX=     5.
 Integral derivatives from FoFDir/FoFCou, PRISM(SPDF).
 Do as many integral derivatives as possible in FoFDir.
 G2DrvN: MDV=      65535856.
 G2DrvN: will do     6 centers at a time, making    1 passes doing MaxLOS=2.
 Calling FoFCou, ICntrl=  3107 FMM=F I1Cent=   0 AccDes= 0.00D+00.
 FoFCou: FMM=F IPFlag=           0 FMFlag=      100000 FMFlg1=           0
         NFxFlg=           0 DoJE=F BraDBF=F KetDBF=F FulRan=T
         Omega=  0.000000  0.000000  1.000000  0.000000  0.000000 ICntrl=    3107 IOpCl=  1
         NMat0=    1 NMatS0=    1 NMatT0=    0 NMatD0=    1 NMtDS0=    0 NMtDT0=    0
         I1Cent=           0 NGrid=           0.
 Symmetry not used in FoFCou.
 FoFDir/FoFCou used for L=0 through L=2.
 End of G2Drv Frequency-dependent properties file   721 does not exist.
 End of G2Drv Frequency-dependent properties file   722 does not exist.
 Leave Link 1110 at Fri Apr 25 17:09:45 2014, MaxMem=   65536000 cpu:      16.8
 (Enter /apps/gaussian/g09/l1002.exe)
 Minotr:  UHF open shell wavefunction.
          IDoAtm=11111
          Direct CPHF calculation.
          Differentiating once with respect to electric field.
                with respect to dipole field.
          Differentiating once with respect to nuclear coordinates.
          Requested convergence is 1.0D-08 RMS, and 1.0D-07 maximum.
          Secondary convergence is 1.0D-12 RMS, and 1.0D-12 maximum.
          NewPWx=T KeepS1=F KeepF1=F KeepIn=T MapXYZ=F SortEE=F KeepMc=T.
          MDV=      65535946 using IRadAn=       2.
 Generate precomputed XC quadrature information.
          Keep R1 and R2 ints in memory in canonical form, NReq=6656460.
 Symmetry not used in FoFDir.
 MinBra= 0 MaxBra= 2 Meth= 1.
 IRaf=       0 NMat=   1 IRICut=       1 DoRegI=T DoRafI=F ISym2E= 0 JSym2E=0.
          Solving linear equations simultaneously, MaxMat=       0.
          There are    18 degrees of freedom in the 1st order CPHF.  IDoFFX=5.
     15 vectors produced by pass  0 Test12= 6.96D-15 5.56D-09 XBig12= 2.24D+02 9.30D+00.
 AX will form    15 AO Fock derivatives at one time.
     15 vectors produced by pass  1 Test12= 6.96D-15 5.56D-09 XBig12= 5.34D+01 2.31D+00.
     15 vectors produced by pass  2 Test12= 6.96D-15 5.56D-09 XBig12= 1.31D+00 2.71D-01.
     15 vectors produced by pass  3 Test12= 6.96D-15 5.56D-09 XBig12= 3.36D-02 3.65D-02.
     15 vectors produced by pass  4 Test12= 6.96D-15 5.56D-09 XBig12= 5.72D-04 5.59D-03.
     15 vectors produced by pass  5 Test12= 6.96D-15 5.56D-09 XBig12= 5.22D-06 3.95D-04.
     13 vectors produced by pass  6 Test12= 6.96D-15 5.56D-09 XBig12= 3.05D-08 3.08D-05.
      7 vectors produced by pass  7 Test12= 6.96D-15 5.56D-09 XBig12= 1.02D-10 1.45D-06.
      2 vectors produced by pass  8 Test12= 6.96D-15 5.56D-09 XBig12= 3.18D-13 9.19D-08.
      1 vectors produced by pass  9 Test12= 6.96D-15 5.56D-09 XBig12= 1.55D-15 6.35D-09.
 Inverted reduced A of dimension   113 with in-core refinement.
 FullF1:  Do perturbations    1 to     3.
 Isotropic polarizability for W=    0.000000       30.85 Bohr**3.
 End of Minotr Frequency-dependent properties file   721 does not exist.
 End of Minotr Frequency-dependent properties file   722 does not exist.
 Leave Link 1002 at Fri Apr 25 17:09:47 2014, MaxMem=   65536000 cpu:      26.3
 (Enter /apps/gaussian/g09/l601.exe)
 Copying SCF densities to generalized density rwf, IOpCl= 1 IROHF=0.

 **********************************************************************

            Population analysis using the SCF density.

 **********************************************************************

 Orbital symmetries:
 Alpha Orbitals:
       Occupied  (A) (A) (A) (A) (A) (A) (A) (A) (A) (A) (A) (A)
       Virtual   (A) (A) (A) (A) (A) (A) (A) (A) (A) (A) (A) (A)
                 (A) (A) (A) (A) (A) (A) (A) (A) (A) (A) (A) (A)
                 (A) (A) (A) (A) (A) (A) (A) (A) (A) (A) (A) (A)
                 (A) (A) (A) (A) (A) (A) (A) (A) (A) (A) (A) (A)
                 (A) (A) (A) (A) (A) (A)
 Beta  Orbitals:
       Occupied  (A) (A) (A) (A) (A) (A) (A) (A) (A) (A) (A)
       Virtual   (A) (A) (A) (A) (A) (A) (A) (A) (A) (A) (A) (A)
                 (A) (A) (A) (A) (A) (A) (A) (A) (A) (A) (A) (A)
                 (A) (A) (A) (A) (A) (A) (A) (A) (A) (A) (A) (A)
                 (A) (A) (A) (A) (A) (A) (A) (A) (A) (A) (A) (A)
                 (A) (A) (A) (A) (A) (A) (A)
 The electronic state is 2-A.
 Alpha  occ. eigenvalues --  -14.52456 -14.47852 -14.44536  -1.14867  -0.99336
 Alpha  occ. eigenvalues --   -0.66315  -0.56491  -0.51964  -0.46661  -0.42046
 Alpha  occ. eigenvalues --   -0.32285  -0.16995
 Alpha virt. eigenvalues --   -0.02215   0.01893   0.04513   0.21549   0.27244
 Alpha virt. eigenvalues --    0.35426   0.42453   0.47250   0.50978   0.55103
 Alpha virt. eigenvalues --    0.60200   0.65318   0.68865   0.69458   0.73763
 Alpha virt. eigenvalues --    0.78823   0.88603   0.99327   1.14279   1.25299
 Alpha virt. eigenvalues --    1.38967   1.41705   1.47139   1.57888   1.67310
 Alpha virt. eigenvalues --    1.69709   1.72664   1.85089   1.91773   2.08005
 Alpha virt. eigenvalues --    2.10558   2.23224   2.26222   2.37366   2.40136
 Alpha virt. eigenvalues --    2.48072   2.59349   2.65741   2.84867   3.07491
 Alpha virt. eigenvalues --    3.15940   3.46054   3.54582   3.63778   3.87042
 Alpha virt. eigenvalues --    3.90370   3.91862   4.16511   4.28378   4.35695
 Alpha virt. eigenvalues --    5.07451  34.99818  35.42662  36.09824
  Beta  occ. eigenvalues --  -14.52195 -14.47760 -14.43678  -1.13344  -0.97874
  Beta  occ. eigenvalues --   -0.65777  -0.54184  -0.51315  -0.44137  -0.38938
  Beta  occ. eigenvalues --   -0.31619
  Beta virt. eigenvalues --   -0.05482  -0.00380   0.03002   0.06508   0.22187
  Beta virt. eigenvalues --    0.31665   0.35434   0.42467   0.47199   0.50962
  Beta virt. eigenvalues --    0.55955   0.60328   0.65901   0.69504   0.69924
  Beta virt. eigenvalues --    0.73788   0.78965   0.89274   0.99491   1.14052
  Beta virt. eigenvalues --    1.25665   1.39487   1.42672   1.48599   1.59108
  Beta virt. eigenvalues --    1.68193   1.71016   1.73758   1.85824   1.92680
  Beta virt. eigenvalues --    2.10149   2.13011   2.23626   2.28115   2.38273
  Beta virt. eigenvalues --    2.40831   2.48420   2.60685   2.66438   2.85201
  Beta virt. eigenvalues --    3.08088   3.17965   3.45792   3.55421   3.67121
  Beta virt. eigenvalues --    3.87424   3.92687   3.94852   4.16207   4.27912
  Beta virt. eigenvalues --    4.36616   5.07674  35.00595  35.42922  36.10673
     Alpha Molecular Orbital Coefficients:
                           1         2         3         4         5
                           O         O         O         O         O
     Eigenvalues --   -14.52456 -14.47852 -14.44536  -1.14867  -0.99336
   1 1   N  1S          0.55745  -0.00237  -0.00351  -0.10289   0.00305
   2        2S          0.46469  -0.00175  -0.00232  -0.15973   0.00415
   3        2PX        -0.00047  -0.00073   0.00105   0.02238  -0.16810
   4        2PY         0.00050   0.00003   0.00016   0.01875  -0.01252
   5        2PZ        -0.00011  -0.00006   0.00003  -0.00136  -0.00577
   6        3S          0.01795  -0.00081  -0.00259   0.45120  -0.00720
   7        3PX         0.00248   0.00252  -0.00546   0.01851  -0.22703
   8        3PY         0.00092  -0.00009  -0.00089   0.02514  -0.01567
   9        3PZ        -0.00001   0.00019  -0.00014  -0.00231  -0.00780
  10        4S         -0.00466   0.00219   0.00340   0.21233   0.00437
  11        4PX         0.00076  -0.00693   0.00731  -0.01082  -0.05047
  12        4PY        -0.00049   0.00016   0.00067   0.00855  -0.00691
  13        4PZ         0.00000  -0.00025   0.00032  -0.00017  -0.00091
  14        5D 0       -0.00213   0.00064   0.00131  -0.01267  -0.00173
  15        5D+1        0.00034  -0.00026  -0.00009   0.00177   0.00054
  16        5D-1        0.00002   0.00003  -0.00002  -0.00039  -0.00024
  17        5D+2        0.00357  -0.00114  -0.00211   0.01914   0.00318
  18        5D-2        0.00064   0.00026  -0.00092   0.00293  -0.00470
  19 2   N  1S          0.00331  -0.00029   0.55736  -0.06408   0.06812
  20        2S          0.00347  -0.00022   0.46520  -0.09904   0.10641
  21        2PX        -0.00080  -0.00007  -0.00173  -0.07665   0.07035
  22        2PY        -0.00020   0.00004  -0.00027  -0.01386   0.01706
  23        2PZ        -0.00001  -0.00002  -0.00004  -0.00186   0.00130
  24        3S         -0.00285  -0.00005   0.01683   0.27787  -0.30163
  25        3PX         0.00513   0.00014  -0.00384  -0.10453   0.09472
  26        3PY         0.00116  -0.00018  -0.00077  -0.01770   0.02373
  27        3PZ         0.00008   0.00008  -0.00008  -0.00260   0.00156
  28        4S         -0.00067   0.00429  -0.01146   0.11206  -0.15760
  29        4PX        -0.00044  -0.00139   0.00386  -0.02094   0.02957
  30        4PY         0.00011  -0.00063   0.00100  -0.00585   0.00676
  31        4PZ        -0.00001  -0.00008   0.00003  -0.00040   0.00018
  32        5D 0        0.00148   0.00003  -0.00118  -0.00857   0.00852
  33        5D+1       -0.00007  -0.00004   0.00010   0.00074  -0.00039
  34        5D-1       -0.00002  -0.00001   0.00001  -0.00006   0.00006
  35        5D+2       -0.00228  -0.00016   0.00191   0.01302  -0.01147
  36        5D-2       -0.00114   0.00018   0.00072   0.00449  -0.00663
  37 3   N  1S          0.00232   0.55768   0.00028  -0.05246  -0.08547
  38        2S          0.00223   0.46502   0.00025  -0.08107  -0.13309
  39        2PX         0.00086   0.00098   0.00013   0.04842   0.04701
  40        2PY        -0.00004  -0.00025   0.00006  -0.00769  -0.01903
  41        2PZ        -0.00001   0.00094  -0.00002   0.01119   0.02231
  42        3S         -0.00085   0.01655  -0.00003   0.22721   0.37583
  43        3PX        -0.00330   0.00045  -0.00031   0.07244   0.07505
  44        3PY        -0.00002  -0.00123  -0.00020  -0.00743  -0.02426
  45        3PZ         0.00009   0.00089   0.00006   0.01636   0.03398
  46        4S          0.00143  -0.01174   0.00352   0.09467   0.23379
  47        4PX         0.00126  -0.00310   0.00170   0.00290   0.02308
  48        4PY         0.00022   0.00018  -0.00023  -0.00582  -0.00677
  49        4PZ         0.00019  -0.00086   0.00007   0.00732   0.01602
  50        5D 0        0.00082  -0.00055   0.00005  -0.00575  -0.00769
  51        5D+1       -0.00051  -0.00024   0.00002   0.00210   0.00245
  52        5D-1       -0.00011  -0.00057  -0.00001  -0.00151  -0.00327
  53        5D+2       -0.00164   0.00062  -0.00015   0.00854   0.00981
  54        5D-2        0.00063   0.00045  -0.00020  -0.00114  -0.00380
  55 4   H  1S         -0.00027  -0.00012  -0.00003   0.02576   0.05957
  56        2S         -0.00080  -0.00153   0.00003   0.02301   0.05631
  57        3S          0.00069   0.00130   0.00039  -0.01128  -0.00814
  58        4PX        -0.00017  -0.00088   0.00010   0.00527   0.00892
  59        4PY        -0.00056  -0.00150   0.00000   0.00473   0.01032
  60        4PZ         0.00034   0.00121   0.00000  -0.00310  -0.00732
  61 5   H  1S          0.00010   0.00018   0.00003   0.00796   0.01903
  62        2S         -0.00058   0.00039  -0.00013   0.01118   0.01938
  63        3S          0.00036   0.00046   0.00023  -0.00509  -0.00109
  64        4PX        -0.00016   0.00024  -0.00001   0.00191   0.00247
  65        4PY         0.00020  -0.00001   0.00000  -0.00269  -0.00560
  66        4PZ         0.00003   0.00007   0.00000  -0.00083  -0.00135
                           6         7         8         9        10
                           O         O         O         O         O
     Eigenvalues --    -0.66315  -0.56491  -0.51964  -0.46661  -0.42046
   1 1   N  1S          0.04576   0.02195  -0.01160   0.03166  -0.00193
   2        2S          0.07292   0.03552  -0.01863   0.05100  -0.00302
   3        2PX         0.10508   0.00298  -0.02049  -0.11747   0.00916
   4        2PY        -0.01662   0.17553   0.04062  -0.00040   0.13496
   5        2PZ         0.03418  -0.02109   0.20834   0.01341  -0.03550
   6        3S         -0.22301  -0.10816   0.05690  -0.15935   0.01189
   7        3PX         0.14703  -0.00065  -0.03117  -0.16218   0.01538
   8        3PY        -0.02683   0.27083   0.06320   0.00090   0.20427
   9        3PZ         0.05325  -0.03185   0.32043   0.02046  -0.05419
  10        4S         -0.22012  -0.11002   0.05620  -0.19840   0.00843
  11        4PX         0.08439   0.05524  -0.00525  -0.12755  -0.04951
  12        4PY        -0.01706   0.18557   0.04171  -0.00573   0.16677
  13        4PZ         0.02463  -0.02676   0.23126   0.02010  -0.04555
  14        5D 0        0.00068  -0.00101  -0.00188  -0.00092  -0.00243
  15        5D+1       -0.00512   0.00057   0.00184   0.00166  -0.00793
  16        5D-1        0.00130  -0.00128   0.00683   0.00071  -0.00103
  17        5D+2        0.00098  -0.01155  -0.00181   0.00203  -0.00809
  18        5D-2        0.00523  -0.00765  -0.00042   0.00403   0.03107
  19 2   N  1S         -0.03494  -0.01342   0.01240  -0.07618   0.01066
  20        2S         -0.05541  -0.02171   0.01981  -0.12145   0.01720
  21        2PX        -0.00030  -0.00694  -0.02465   0.19584  -0.07790
  22        2PY        -0.01334   0.09271   0.02466   0.06076   0.15433
  23        2PZ         0.01111  -0.01091   0.12846   0.01812  -0.03959
  24        3S          0.16151   0.06529  -0.05815   0.34474  -0.04828
  25        3PX         0.00086  -0.01459  -0.03443   0.26587  -0.11076
  26        3PY        -0.02066   0.14202   0.03841   0.08608   0.23303
  27        3PZ         0.01801  -0.01745   0.19862   0.02690  -0.05967
  28        4S          0.13523   0.01940  -0.08048   0.57981  -0.05693
  29        4PX        -0.00244   0.01216  -0.01481   0.13182  -0.08722
  30        4PY        -0.00568   0.07367   0.02288   0.05115   0.16731
  31        4PZ         0.00756  -0.00550   0.10818   0.01574  -0.04424
  32        5D 0       -0.00098  -0.00065  -0.00219   0.01231  -0.00243
  33        5D+1       -0.00411   0.00309  -0.03229  -0.00367   0.00767
  34        5D-1       -0.00080   0.00001  -0.00603  -0.00129   0.00096
  35        5D+2       -0.00104   0.00914   0.00499  -0.01984   0.01435
  36        5D-2        0.00393  -0.02301  -0.00569  -0.01228  -0.02570
  37 3   N  1S         -0.04667  -0.02340   0.01967  -0.00028   0.01023
  38        2S         -0.07349  -0.03746   0.03144  -0.00049   0.01627
  39        2PX        -0.17207  -0.01570   0.02552   0.06359  -0.00500
  40        2PY        -0.04362   0.15221   0.02073  -0.03746  -0.13594
  41        2PZ         0.05466  -0.02148   0.11765   0.00882   0.02889
  42        3S          0.20350   0.10913  -0.09509   0.00688  -0.04276
  43        3PX        -0.25223  -0.01966   0.03443   0.09633  -0.00288
  44        3PY        -0.06057   0.23539   0.03194  -0.05855  -0.20189
  45        3PZ         0.08387  -0.02905   0.18200   0.01317   0.03830
  46        4S          0.26499   0.17836  -0.08420  -0.04036  -0.14885
  47        4PX        -0.10058  -0.00600   0.03513   0.06001  -0.02345
  48        4PY        -0.03198   0.14004   0.02156  -0.03620  -0.16481
  49        4PZ         0.05077  -0.00628   0.12591   0.00329   0.02035
  50        5D 0        0.00852  -0.00174   0.00950  -0.00144   0.00188
  51        5D+1       -0.00817  -0.00382   0.02558   0.00621  -0.00170
  52        5D-1       -0.00807   0.01230  -0.00283  -0.00267  -0.01150
  53        5D+2       -0.02077   0.00332   0.00107   0.00586   0.00208
  54        5D-2        0.00632   0.01792   0.00339  -0.00312   0.01211
  55 4   H  1S          0.14483  -0.05853   0.00188  -0.00158   0.09791
  56        2S          0.16811  -0.08658  -0.00375   0.00233   0.15765
  57        3S          0.02998  -0.01831   0.00031  -0.00333   0.05353
  58        4PX         0.00192  -0.01039   0.00318   0.00545   0.00924
  59        4PY         0.01646   0.00146   0.00228  -0.00156   0.00250
  60        4PZ        -0.00963   0.00462   0.00921  -0.00062  -0.00687
  61 5   H  1S          0.04810   0.08030   0.00202  -0.04056  -0.10564
  62        2S          0.06346   0.11167  -0.00224  -0.06669  -0.16587
  63        3S          0.01977   0.04188   0.00120  -0.02871  -0.10367
  64        4PX         0.00023   0.00700   0.00106  -0.00127  -0.00437
  65        4PY        -0.01058  -0.00903   0.00061   0.00449   0.00728
  66        4PZ        -0.00096  -0.00380   0.00400   0.00151   0.00358
                          11        12        13        14        15
                           O         O         V         V         V
     Eigenvalues --    -0.32285  -0.16995  -0.02215   0.01893   0.04513
   1 1   N  1S         -0.00572  -0.01681  -0.00238  -0.00099  -0.00753
   2        2S         -0.00946  -0.02733  -0.00329  -0.00165  -0.01206
   3        2PX        -0.01838  -0.01833   0.01194  -0.02596   0.00046
   4        2PY        -0.00602  -0.14726  -0.10769   0.09497  -0.05741
   5        2PZ        -0.05104  -0.00991   0.15045   0.17505  -0.01650
   6        3S          0.03298   0.07295  -0.00650   0.00371   0.02155
   7        3PX        -0.02826  -0.02189   0.03827  -0.05311  -0.02054
   8        3PY        -0.00745  -0.22406  -0.16543   0.14813  -0.08931
   9        3PZ        -0.07591  -0.01529   0.23061   0.26827  -0.02489
  10        4S         -0.00028   0.20241   0.17609  -0.01164   0.13097
  11        4PX         0.03240  -0.08781  -0.18593   0.01916   0.22599
  12        4PY        -0.01247  -0.29421  -0.25079   0.23120  -0.15934
  13        4PZ        -0.07501  -0.02104   0.33661   0.43955  -0.03019
  14        5D 0       -0.00340   0.00576  -0.00003   0.00249   0.01093
  15        5D+1       -0.04716   0.00216  -0.02214  -0.01035   0.00063
  16        5D-1       -0.00404   0.00251  -0.00176  -0.00350  -0.00500
  17        5D+2        0.00230  -0.01520  -0.00036  -0.00373  -0.02117
  18        5D-2       -0.00852   0.03501   0.00807  -0.00290  -0.01183
  19 2   N  1S         -0.00042   0.00606  -0.00003   0.00303   0.01049
  20        2S         -0.00068   0.01048   0.00027   0.00498   0.01742
  21        2PX         0.02331  -0.00557  -0.01090   0.02666   0.03002
  22        2PY        -0.02919   0.20083   0.09868  -0.07348   0.05669
  23        2PZ        -0.16866   0.00886  -0.15156  -0.15624   0.00883
  24        3S          0.00099  -0.04614  -0.00332  -0.02106  -0.07338
  25        3PX         0.03350  -0.00775  -0.01276   0.03657   0.04321
  26        3PY        -0.04298   0.29226   0.14155  -0.10389   0.08336
  27        3PZ        -0.25167   0.01195  -0.21517  -0.22135   0.01057
  28        4S         -0.01395   0.05956   0.13092  -0.05736  -0.19592
  29        4PX         0.03598  -0.06210  -0.07691   0.07490   0.09562
  30        4PY        -0.03609   0.37859   0.21394  -0.18352   0.15846
  31        4PZ        -0.22781   0.01871  -0.36051  -0.39974   0.02912
  32        5D 0        0.00144   0.00119   0.00074  -0.00058  -0.00126
  33        5D+1        0.02169  -0.00001  -0.00551  -0.00920   0.00166
  34        5D-1        0.00421   0.00017  -0.00136  -0.00261  -0.00051
  35        5D+2       -0.00270  -0.00169  -0.00367   0.00361   0.00123
  36        5D-2        0.00234  -0.00479   0.00466  -0.00591   0.00370
  37 3   N  1S          0.02629   0.03349  -0.03533   0.02340   0.01953
  38        2S          0.04234   0.05375  -0.05612   0.03701   0.03073
  39        2PX         0.03470  -0.01192  -0.07851   0.02797  -0.01351
  40        2PY         0.03826  -0.04672   0.06440  -0.07065   0.17326
  41        2PZ         0.21913  -0.01933  -0.02577  -0.13165  -0.02615
  42        3S         -0.13205  -0.16580   0.15107  -0.09799  -0.08288
  43        3PX         0.04684  -0.03392  -0.10697   0.02680  -0.05280
  44        3PY         0.05712  -0.06521   0.09069  -0.10353   0.22045
  45        3PZ         0.32096  -0.03298  -0.02466  -0.18374  -0.02762
  46        4S         -0.12679  -0.39068   0.44225  -0.43572  -0.34809
  47        4PX         0.07216  -0.01013  -0.29726   0.14751   0.17015
  48        4PY         0.06499  -0.12185   0.15423  -0.18034   0.57386
  49        4PZ         0.36885  -0.03590  -0.06825  -0.37326  -0.09964
  50        5D 0        0.01129  -0.00743   0.00564  -0.00697   0.00247
  51        5D+1        0.01003  -0.00244   0.01896   0.01838  -0.00614
  52        5D-1       -0.00329   0.00310   0.00206  -0.00118  -0.00013
  53        5D+2        0.00161  -0.00563  -0.00072  -0.00224   0.00544
  54        5D-2       -0.00074  -0.03189  -0.00779   0.00658   0.01155
  55 4   H  1S          0.03247  -0.02430  -0.08057   0.01331   0.04373
  56        2S          0.03001  -0.05960  -0.15110  -0.00940  -0.04233
  57        3S          0.01926   0.00312  -0.43742   0.48948   1.50519
  58        4PX         0.00578   0.00202   0.00570  -0.00212  -0.01868
  59        4PY         0.00715  -0.00360   0.00521  -0.01753  -0.01262
  60        4PZ         0.01807  -0.00015  -0.00457  -0.01064   0.01913
  61 5   H  1S          0.04495   0.14013  -0.07033   0.03664  -0.06181
  62        2S          0.05903   0.29644  -0.14070   0.04691  -0.12110
  63        3S          0.05525   0.44314  -0.42728   0.43788  -0.65108
  64        4PX         0.00059  -0.00551   0.00750  -0.00629   0.00097
  65        4PY         0.00006   0.00139  -0.01051   0.01331  -0.01163
  66        4PZ         0.00885   0.00118  -0.00949  -0.00365  -0.00405
                          16        17        18        19        20
                           V         V         V         V         V
     Eigenvalues --     0.21549   0.27244   0.35426   0.42453   0.47250
   1 1   N  1S         -0.06976   0.01848  -0.00516   0.00632   0.04328
   2        2S         -0.11365   0.03172  -0.00583   0.01602   0.08196
   3        2PX        -0.08954   0.04162   0.03050   0.13501  -0.08290
   4        2PY         0.05589  -0.07536  -0.03329   0.04952   0.03640
   5        2PZ        -0.02475  -0.01359   0.03935  -0.01910  -0.01539
   6        3S          0.29266  -0.13375  -0.06240  -0.22825  -0.57924
   7        3PX        -0.14964   0.03738   0.09702   0.22645  -0.08984
   8        3PY         0.09441  -0.12848  -0.05935   0.09003   0.11132
   9        3PZ        -0.02978  -0.02624   0.05976  -0.06735  -0.03018
  10        4S          2.46398  -0.43756   0.34758   1.05114  -2.01164
  11        4PX        -0.59559   0.66477  -0.13917   4.41776  -2.12211
  12        4PY         0.30067  -0.18932  -0.24198   0.43284  -0.43239
  13        4PZ        -0.16225   0.03294   0.25629   0.22421   0.00547
  14        5D 0        0.02952   0.00138   0.00399   0.01501   0.00770
  15        5D+1       -0.00817  -0.00572   0.01158  -0.00287  -0.01031
  16        5D-1        0.00121  -0.00268  -0.01884   0.01071   0.00042
  17        5D+2       -0.04980   0.00109  -0.01977  -0.02167  -0.01621
  18        5D-2       -0.01204  -0.01814  -0.01159   0.00856   0.01066
  19 2   N  1S          0.03963   0.00404   0.01580   0.04635  -0.00445
  20        2S          0.06686   0.00785   0.02795   0.07970   0.00264
  21        2PX         0.14494  -0.00950   0.04411   0.04082   0.06171
  22        2PY        -0.01172   0.00644   0.00352  -0.01231  -0.00416
  23        2PZ         0.01812   0.00523  -0.00111  -0.00409   0.01216
  24        3S         -0.26216  -0.05798  -0.12722  -0.28161  -0.26437
  25        3PX         0.21122   0.00651   0.07612   0.08757   0.32519
  26        3PY        -0.00843  -0.02384  -0.02843  -0.03332   0.05798
  27        3PZ         0.02403   0.00802   0.03096  -0.02646   0.03274
  28        4S         -0.41596  -0.28095   0.01030  -4.15654   3.15844
  29        4PX         0.51156   0.01867   0.08339   2.29464  -2.34799
  30        4PY        -0.10609   0.21166   0.16917   0.59794  -0.52215
  31        4PZ         0.08589   0.00600  -0.16712   0.06622  -0.08044
  32        5D 0       -0.00040  -0.00237  -0.00172   0.00327   0.01850
  33        5D+1        0.00237   0.00256  -0.00672   0.00662   0.00357
  34        5D-1        0.00107   0.00143  -0.00392   0.00210  -0.00101
  35        5D+2        0.00735  -0.00607  -0.00265  -0.00001  -0.02234
  36        5D-2       -0.00675   0.01020   0.00640  -0.01063  -0.03123
  37 3   N  1S          0.04355  -0.01885   0.03052  -0.01250   0.01250
  38        2S          0.07201  -0.03037   0.05374  -0.01416   0.02577
  39        2PX        -0.21417   0.00314   0.02175  -0.08008  -0.09966
  40        2PY        -0.00252   0.06995   0.06282  -0.05641  -0.04218
  41        2PZ         0.01125   0.02815  -0.07654  -0.00651   0.03298
  42        3S         -0.22433   0.08044  -0.21220  -0.17166  -0.17358
  43        3PX        -0.30227  -0.03011  -0.00982  -0.34287  -0.39497
  44        3PY         0.00732   0.13495   0.13352  -0.09851  -0.10332
  45        3PZ         0.01330   0.05286  -0.16717  -0.01885   0.09646
  46        4S         -1.22623   0.52402  -0.64820   3.73248  -0.84309
  47        4PX        -1.30218   0.53752   0.60162   2.35212   0.18571
  48        4PY         0.01542   0.08585   0.72929  -0.82932   0.33747
  49        4PZ        -0.01420   0.03939  -0.55410   0.50892  -0.23607
  50        5D 0       -0.00777   0.02004  -0.00962   0.00884   0.01312
  51        5D+1       -0.00708   0.00251  -0.00310  -0.01260   0.00283
  52        5D-1        0.00213  -0.00932  -0.01119   0.00133   0.00902
  53        5D+2        0.02661   0.00180  -0.01615  -0.02641  -0.02201
  54        5D-2        0.01225   0.01370   0.00743   0.02005   0.00318
  55 4   H  1S          0.01119   0.00638   0.13228  -0.03138  -0.02128
  56        2S          0.07961   0.16601   1.96312  -0.90191   0.01357
  57        3S         -0.49173  -0.36044  -0.91076   0.39786   0.12522
  58        4PX        -0.02865  -0.00763   0.03351  -0.02014   0.03730
  59        4PY         0.01905   0.02384  -0.00393  -0.02766   0.01223
  60        4PZ        -0.00918   0.01950  -0.00824   0.00785  -0.01792
  61 5   H  1S         -0.02555  -0.14685   0.02935   0.00325   0.01174
  62        2S         -0.24241  -1.32152   0.28172   0.22789   0.10066
  63        3S          0.15553   1.64208  -0.13273  -0.00642  -0.16826
  64        4PX        -0.01698   0.01663   0.02881   0.04294   0.01998
  65        4PY        -0.00643  -0.01200   0.02418  -0.00572  -0.00254
  66        4PZ        -0.00113  -0.00772  -0.02869   0.02600  -0.00179
                          21        22        23        24        25
                           V         V         V         V         V
     Eigenvalues --     0.50978   0.55103   0.60200   0.65318   0.68865
   1 1   N  1S         -0.00492  -0.00698  -0.00842   0.02735   0.04267
   2        2S         -0.00972  -0.01301  -0.01689   0.05287   0.08207
   3        2PX        -0.03215  -0.00977  -0.03601  -0.01268  -0.08064
   4        2PY        -0.02994  -0.11520  -0.00535  -0.05500   0.09745
   5        2PZ        -0.10695   0.02100   0.05727  -0.01753   0.00732
   6        3S          0.06791   0.08532   0.11877  -0.32422  -0.51237
   7        3PX        -0.06049  -0.02563  -0.10506  -0.23777  -0.37627
   8        3PY        -0.10326  -0.47973  -0.00991  -0.17751   0.35811
   9        3PZ        -0.43156   0.09257   0.21830  -0.06844   0.01439
  10        4S         -0.47830  -0.19825  -0.64017   0.73142   0.51110
  11        4PX        -0.21910   0.31990   1.07443   0.26553   0.76765
  12        4PY         0.07417   0.66694   0.15681   0.09945  -0.91292
  13        4PZ         0.43744  -0.15018  -0.49131   0.19066  -0.07620
  14        5D 0        0.00771   0.01182   0.01206   0.00053  -0.00884
  15        5D+1        0.00432   0.00366   0.06632   0.01208   0.01076
  16        5D-1       -0.00906   0.00561   0.01737  -0.01284  -0.00175
  17        5D+2       -0.00047   0.01181  -0.01016   0.00685   0.01046
  18        5D-2       -0.00240  -0.01923  -0.00159   0.02632  -0.04419
  19 2   N  1S         -0.00870  -0.00092  -0.01061   0.04512   0.04560
  20        2S         -0.01499  -0.00169  -0.01980   0.08696   0.08997
  21        2PX         0.01358   0.03242   0.00679  -0.10706  -0.10721
  22        2PY        -0.01452  -0.15832   0.02810   0.08620  -0.13579
  23        2PZ        -0.11236   0.03215   0.13894   0.02917  -0.00214
  24        3S          0.04646  -0.00755   0.10202  -0.61198  -0.68540
  25        3PX         0.06656   0.12100   0.05682  -0.35337  -0.27201
  26        3PY        -0.04966  -0.56223   0.10653   0.27793  -0.46054
  27        3PZ        -0.41157   0.11289   0.48829   0.10647  -0.00452
  28        4S          0.40356  -0.20001  -0.64522   0.29112   0.34077
  29        4PX        -0.42086  -0.14720   0.04144   0.39436   0.06196
  30        4PY        -0.02154   0.67330  -0.12458  -0.44269   1.00487
  31        4PZ         0.45543  -0.11646  -0.59483  -0.22859   0.02176
  32        5D 0        0.00122  -0.00102  -0.00076  -0.00068   0.01181
  33        5D+1        0.03215  -0.00741  -0.03103  -0.00369  -0.00330
  34        5D-1        0.00825  -0.00088  -0.00124  -0.00390   0.00124
  35        5D+2       -0.00379  -0.01323   0.00123  -0.00708  -0.02882
  36        5D-2        0.00545   0.04151  -0.00543  -0.00560   0.00063
  37 3   N  1S         -0.00603   0.00556  -0.01188  -0.01512  -0.00352
  38        2S         -0.01085   0.01083  -0.02051  -0.02790  -0.00621
  39        2PX        -0.02095  -0.01273  -0.03690   0.04167   0.04320
  40        2PY        -0.00857  -0.08081   0.02537  -0.15200   0.05419
  41        2PZ        -0.15390   0.01459  -0.15809  -0.00083  -0.02816
  42        3S          0.04423  -0.08410   0.04246   0.22893   0.06354
  43        3PX        -0.03251  -0.00224  -0.09447   0.12677   0.10564
  44        3PY        -0.06789  -0.28095   0.05834  -0.54081   0.17696
  45        3PZ        -0.53269   0.04800  -0.54234  -0.05460  -0.09767
  46        4S          0.12541   0.35384   1.24928  -0.60474   0.40017
  47        4PX        -0.11309   0.05953   0.47588  -0.29933  -0.25009
  48        4PY         0.07386   0.20305  -0.50058   1.37287  -0.12006
  49        4PZ         0.67739   0.05572   1.24421  -0.15320   0.24472
  50        5D 0       -0.01498  -0.00373  -0.00954   0.01634  -0.00257
  51        5D+1       -0.03197   0.00389  -0.03535   0.00327  -0.01290
  52        5D-1       -0.00233   0.00546   0.00091  -0.00272  -0.00228
  53        5D+2        0.01221   0.00285   0.01995  -0.00535  -0.00286
  54        5D-2       -0.00004  -0.01846   0.01395  -0.03395   0.01371
  55 4   H  1S          0.01257  -0.02203   0.00911  -0.01423   0.00692
  56        2S         -0.06288  -0.27645  -0.49296   0.37839   0.02572
  57        3S         -0.17940   0.51673  -0.10121   0.48477  -0.39044
  58        4PX        -0.03350  -0.02677  -0.10177   0.05265  -0.00064
  59        4PY        -0.01953   0.01524  -0.01809   0.09396  -0.02973
  60        4PZ         0.01154  -0.01994   0.03160  -0.02777   0.01602
  61 5   H  1S          0.00307   0.02633  -0.01258   0.02555   0.01907
  62        2S         -0.11175   0.08966  -0.12672  -0.27378  -0.03706
  63        3S         -0.04481  -0.45934   0.19573  -0.38554   0.09011
  64        4PX        -0.00995   0.00878  -0.01723  -0.03337  -0.07696
  65        4PY         0.01675   0.02503  -0.01785   0.07384  -0.02304
  66        4PZ         0.02629   0.02223   0.07092  -0.00417  -0.00298
                          26        27        28        29        30
                           V         V         V         V         V
     Eigenvalues --     0.69458   0.73763   0.78823   0.88603   0.99327
   1 1   N  1S          0.01326  -0.02737  -0.04378  -0.01485   0.00210
   2        2S          0.02622  -0.05487  -0.08618  -0.02858   0.00049
   3        2PX        -0.04208   0.01318  -0.18637   0.17239  -0.22968
   4        2PY        -0.08829   0.10216  -0.02291   0.01756   0.01655
   5        2PZ         0.14931   0.11430  -0.03925  -0.01782  -0.02773
   6        3S         -0.19284   0.42185   0.68786   0.14076   0.09147
   7        3PX        -0.21142  -0.00636  -0.58747  -0.04724  -0.45705
   8        3PY        -0.31043   0.37508  -0.10530   0.06220   0.11638
   9        3PZ         0.49984   0.39559  -0.13918  -0.11024  -0.08784
  10        4S         -0.03156  -0.58751  -1.89280   0.74385   0.03567
  11        4PX         1.91132   0.13303   2.06574   5.35839   7.38031
  12        4PY         1.03100  -1.32943   0.20006   0.27107  -0.09861
  13        4PZ        -1.23445  -0.98606   0.62317   0.59310   0.53490
  14        5D 0        0.00903  -0.01208  -0.00278   0.00754   0.00301
  15        5D+1       -0.01428  -0.01114  -0.00194   0.03526   0.00375
  16        5D-1        0.02127  -0.01619  -0.01070   0.00479   0.02544
  17        5D+2       -0.00672  -0.00038  -0.02150  -0.00397   0.01208
  18        5D-2       -0.01202   0.00194   0.00427  -0.11722  -0.00815
  19 2   N  1S          0.01899  -0.02085  -0.00925   0.02619  -0.05249
  20        2S          0.03744  -0.04237  -0.01873   0.04521  -0.10306
  21        2PX        -0.04375   0.06470  -0.07732   0.20134  -0.10826
  22        2PY         0.04691  -0.02144  -0.01268   0.06441   0.00093
  23        2PZ        -0.12585  -0.07277   0.00586   0.00722  -0.00260
  24        3S         -0.29988   0.33567   0.05509  -0.21114   0.75998
  25        3PX        -0.06787   0.14232  -0.27124   0.62157  -0.03163
  26        3PY         0.18002  -0.11814  -0.03892   0.13086   0.01188
  27        3PZ        -0.43852  -0.25666   0.03508   0.04515   0.00819
  28        4S         -1.11728  -0.17680  -0.78026  -4.38595  -6.49488
  29        4PX         0.46573  -0.18793   0.31441   1.09122   2.39706
  30        4PY        -0.40752   0.63557   0.07758   0.55643   0.95096
  31        4PZ         1.07004   0.71281  -0.24955  -0.21707  -0.08594
  32        5D 0        0.01149  -0.02276  -0.01009  -0.02256   0.03175
  33        5D+1        0.00040   0.00333  -0.00442  -0.01783  -0.01288
  34        5D-1        0.00535  -0.00144  -0.00627  -0.00442  -0.00195
  35        5D+2       -0.01522   0.02019   0.01368   0.01298  -0.08382
  36        5D-2       -0.00596   0.01752   0.00146   0.06926   0.01686
  37 3   N  1S          0.00305  -0.02791  -0.04088  -0.04483   0.07535
  38        2S          0.00677  -0.05319  -0.08415  -0.08412   0.15120
  39        2PX         0.01954  -0.05401  -0.19516   0.13438  -0.04716
  40        2PY         0.05345  -0.11228   0.03931  -0.02022  -0.02324
  41        2PZ        -0.01730  -0.02038   0.04780   0.04348  -0.00172
  42        3S         -0.11310   0.38837   0.73565   0.49880  -1.32782
  43        3PX         0.00797  -0.08236  -0.43552   0.43615   0.03526
  44        3PY         0.17592  -0.39768   0.22769   0.02472  -0.23769
  45        3PZ        -0.01385  -0.14195   0.13730   0.14301   0.15037
  46        4S          1.67535  -0.58106   0.22658   3.18400   7.56531
  47        4PX         0.58781   0.39344   1.94790   1.23858   2.56005
  48        4PY        -1.09462   1.59135  -0.38083  -0.63623  -0.35923
  49        4PZ         0.65892   0.26873  -0.62920  -0.01820   0.43329
  50        5D 0       -0.00025  -0.00200  -0.07260  -0.00957   0.00876
  51        5D+1       -0.01544   0.01152   0.03329  -0.02270  -0.03424
  52        5D-1        0.00743  -0.00658   0.01691   0.03218   0.00272
  53        5D+2       -0.01400   0.03974   0.06529  -0.00052   0.06836
  54        5D-2        0.03213  -0.03473  -0.03763   0.09230   0.08599
  55 4   H  1S          0.04135  -0.01903  -0.00849   0.06545   0.07356
  56        2S         -0.49712   0.46573   0.50172  -0.26393  -0.79049
  57        3S         -0.07375   0.55108   0.59250   0.13929  -0.10055
  58        4PX        -0.16140   0.06103  -0.00253  -0.14029  -0.27841
  59        4PY        -0.04649   0.13315   0.08432   0.01077  -0.06038
  60        4PZ        -0.00070  -0.02648  -0.15527  -0.11038   0.12698
  61 5   H  1S         -0.00274   0.01201  -0.02271   0.01402   0.03847
  62        2S          0.21482  -0.43100   0.47032   0.19935  -0.38017
  63        3S          0.05906  -0.02287   0.28794   0.02978  -0.01061
  64        4PX         0.03617  -0.08839   0.06177  -0.01728   0.06856
  65        4PY        -0.02830   0.04236  -0.04371   0.04173   0.10905
  66        4PZ         0.06446  -0.01854  -0.07854   0.06474   0.17569
                          31        32        33        34        35
                           V         V         V         V         V
     Eigenvalues --     1.14279   1.25299   1.38967   1.41705   1.47139
   1 1   N  1S          0.07927  -0.01428   0.00182  -0.00339   0.00243
   2        2S          0.15417  -0.02753   0.00322  -0.00695   0.00503
   3        2PX        -0.08757   0.01890  -0.07122  -0.02901   0.00422
   4        2PY        -0.04869   0.03717  -0.02665   0.00889   0.03925
   5        2PZ         0.00182   0.00094  -0.00403   0.00423   0.01058
   6        3S         -1.37139   0.26294  -0.07338   0.03844  -0.07462
   7        3PX         0.01512   0.06444  -0.30127  -0.12456  -0.07642
   8        3PY        -0.04116   0.09689  -0.07663  -0.00785   0.00574
   9        3PZ         0.00027   0.05620   0.05966  -0.02709  -0.00533
  10        4S          7.13837  -1.39278   1.72329   0.51404   0.79532
  11        4PX         1.03354  -1.84028   6.16942   2.23013   3.00520
  12        4PY         0.73745  -0.65903   0.83830   0.13184   0.46360
  13        4PZ        -0.04294  -0.43914  -0.11836   0.25809   0.05086
  14        5D 0       -0.13139  -0.08995  -0.00937  -0.02857   0.05785
  15        5D+1        0.02707  -0.11894  -0.26883   0.18934   0.15357
  16        5D-1        0.00073   0.05116   0.00610  -0.03371   0.14625
  17        5D+2        0.18452  -0.08317   0.05468  -0.01291   0.02594
  18        5D-2        0.03785  -0.03658  -0.03335   0.09452   0.18402
  19 2   N  1S         -0.06775   0.01363  -0.01673  -0.00723   0.00027
  20        2S         -0.13054   0.02733  -0.03540  -0.01466   0.00025
  21        2PX        -0.11634   0.00787   0.01472   0.00941   0.04013
  22        2PY        -0.03002   0.00602   0.02873   0.00125  -0.02320
  23        2PZ        -0.00151   0.02612   0.04224  -0.03378  -0.02464
  24        3S          1.11870  -0.25012   0.35387   0.15034   0.04766
  25        3PX         0.06453  -0.06136   0.16713   0.07393   0.17002
  26        3PY         0.00531  -0.01818   0.07200   0.01072  -0.01645
  27        3PZ         0.00275   0.03193   0.06804  -0.04978  -0.04047
  28        4S         -4.94285   2.36952  -5.96778  -2.16332  -2.81328
  29        4PX         2.36248  -0.98260   2.24843   0.82015   1.01643
  30        4PY         0.32183  -0.07040   0.49571   0.20173   0.24564
  31        4PZ         0.06056   0.11729   0.15700  -0.04496   0.02448
  32        5D 0        0.08192  -0.04102   0.02502  -0.01495   0.03273
  33        5D+1       -0.00736   0.07368   0.14937  -0.11239  -0.10875
  34        5D-1       -0.00092   0.03675   0.05426  -0.05217   0.02587
  35        5D+2       -0.11874  -0.00170  -0.05222   0.00359   0.05104
  36        5D-2       -0.06451   0.02855   0.04214  -0.02955  -0.08523
  37 3   N  1S         -0.03335   0.01825   0.00839   0.01102   0.00600
  38        2S         -0.06718   0.03468   0.01902   0.01614   0.00935
  39        2PX         0.02416   0.01162  -0.01322   0.02244   0.06162
  40        2PY        -0.00803  -0.04333   0.01173  -0.04082  -0.03169
  41        2PZ         0.01857  -0.02152  -0.05584   0.02571   0.00597
  42        3S          0.72434  -0.26017  -0.28264  -0.03736  -0.08095
  43        3PX        -0.06340   0.10841   0.04970  -0.00046   0.13672
  44        3PY         0.09660  -0.12069  -0.01034  -0.13171   0.01610
  45        3PZ        -0.04820  -0.08263  -0.08136   0.09464  -0.03995
  46        4S         -2.76895  -0.51386   4.63645   1.17322   2.11073
  47        4PX        -1.05500  -0.70522   1.43502   0.83311   0.75303
  48        4PY        -0.00836   0.63736  -0.82509   0.16782  -0.93700
  49        4PZ        -0.15891   0.47917   0.74877  -0.17991   0.39220
  50        5D 0       -0.04722  -0.19604   0.01607  -0.10774  -0.07726
  51        5D+1       -0.00462   0.16696   0.24646  -0.18140  -0.11024
  52        5D-1        0.03530   0.08298  -0.14601   0.03413   0.06093
  53        5D+2       -0.05730  -0.13123  -0.03608  -0.05677  -0.07711
  54        5D-2        0.04384   0.06782  -0.04563  -0.17676  -0.20363
  55 4   H  1S         -0.01678  -0.05045  -0.00895   0.02031  -0.06173
  56        2S          0.47331  -0.03910  -0.66482   0.25540  -0.36909
  57        3S         -0.03388  -0.09743   0.03141   0.00156  -0.11974
  58        4PX        -0.06628  -0.02675   0.40910   0.20350  -0.20182
  59        4PY         0.02900  -0.37334  -0.31316  -0.29111   0.18921
  60        4PZ        -0.28271  -0.54337   0.16573  -0.10363   0.23816
  61 5   H  1S         -0.04285   0.01624   0.02580   0.11377   0.12211
  62        2S          0.31390  -0.50332  -0.11018  -0.29170  -0.05660
  63        3S         -0.07465   0.11884   0.06495   0.32011   0.31006
  64        4PX         0.01960   0.44597  -0.32020  -0.20016   0.38625
  65        4PY         0.00545   0.02191   0.00703  -0.75078  -0.09910
  66        4PZ        -0.05979  -0.08347  -0.43345   0.20050  -0.71689
                          36        37        38        39        40
                           V         V         V         V         V
     Eigenvalues --     1.57888   1.67310   1.69709   1.72664   1.85089
   1 1   N  1S          0.00631   0.00189  -0.00139   0.00211  -0.00936
   2        2S          0.01373   0.00322  -0.00247   0.00317  -0.02013
   3        2PX        -0.00955   0.04874   0.00371   0.06090   0.00998
   4        2PY         0.03202   0.03094   0.02840   0.01114  -0.03615
   5        2PZ         0.00513  -0.03392   0.02019  -0.00464   0.02676
   6        3S         -0.23966  -0.00132   0.04749   0.02919   0.20986
   7        3PX        -0.14325   0.08192   0.04992   0.04724  -0.07716
   8        3PY        -0.00641   0.05541   0.04241   0.00103  -0.01684
   9        3PZ         0.00797  -0.04165   0.02932  -0.00582   0.00160
  10        4S          3.14713  -0.75266  -0.73585  -1.15112  -1.07315
  11        4PX         1.10548  -1.24036  -0.54149   1.23318   1.79601
  12        4PY         0.30210  -0.41214  -0.14800  -0.11879  -0.13323
  13        4PZ         0.08778   0.24402  -0.05174   0.35829   0.27085
  14        5D 0        0.03020   0.20113   0.51481  -0.24263   0.03828
  15        5D+1       -0.13300  -0.19970  -0.04344  -0.22225  -0.22903
  16        5D-1       -0.11470   0.47530  -0.37056  -0.33112   0.06546
  17        5D+2        0.08911   0.17596   0.30595  -0.13782  -0.06065
  18        5D-2        0.26893   0.02820  -0.00836   0.13933   0.28551
  19 2   N  1S         -0.00431   0.00496   0.00253   0.00594   0.00135
  20        2S         -0.00814   0.01125   0.00528   0.01250   0.00284
  21        2PX         0.03701  -0.00394  -0.00940   0.02058   0.02008
  22        2PY        -0.04304   0.00432   0.02155  -0.01743  -0.04935
  23        2PZ         0.01989   0.01817   0.01746   0.05149   0.04466
  24        3S          0.14196  -0.10457  -0.06054  -0.10005  -0.02680
  25        3PX         0.16354  -0.00521  -0.03423   0.07466   0.04551
  26        3PY        -0.04555   0.00920   0.02819  -0.01914  -0.06691
  27        3PZ         0.03689   0.02922   0.02439   0.07623   0.06153
  28        4S         -2.25548   1.36503   0.77959  -0.48899  -0.97900
  29        4PX         0.92440  -0.54842  -0.31704   0.08966   0.26756
  30        4PY         0.22563  -0.06787  -0.06887   0.11533   0.26521
  31        4PZ         0.00533  -0.11796  -0.00603  -0.14839  -0.13580
  32        5D 0        0.07379   0.14059   0.39780  -0.21776   0.10186
  33        5D+1        0.10748  -0.01566   0.14051   0.29216   0.18474
  34        5D-1       -0.03518   0.35638  -0.25694  -0.25032   0.27869
  35        5D+2        0.08208   0.09301   0.16694  -0.04958   0.17674
  36        5D-2       -0.14744   0.06138   0.21040  -0.15348  -0.26892
  37 3   N  1S         -0.03200  -0.01971   0.00950  -0.00394   0.01536
  38        2S         -0.06742  -0.04134   0.01906  -0.00520   0.02878
  39        2PX         0.01384  -0.00438   0.00778   0.03910   0.09137
  40        2PY         0.01475  -0.04109  -0.01555  -0.04474   0.09925
  41        2PZ        -0.02409   0.01348   0.00265   0.00990  -0.07319
  42        3S          0.66981   0.31828  -0.14917  -0.07966  -0.24140
  43        3PX         0.11843  -0.17057   0.00010  -0.02307   0.14573
  44        3PY         0.02520  -0.19119   0.03016  -0.05528   0.06841
  45        3PZ         0.05324   0.13353  -0.03032   0.05012  -0.03594
  46        4S         -1.31993  -1.10664  -0.05992   1.35235   1.98274
  47        4PX        -0.91979   0.29563   0.14584   1.35334   1.00233
  48        4PY         0.03939   0.63291   0.01806  -0.07720  -0.18126
  49        4PZ        -0.49062  -0.48902   0.11244  -0.18912   0.12639
  50        5D 0        0.10404   0.14441   0.04009   0.04498  -0.02903
  51        5D+1        0.13956   0.12289  -0.05795   0.08790  -0.08590
  52        5D-1       -0.02898   0.19393  -0.02808   0.12965  -0.30223
  53        5D+2       -0.05443   0.07354   0.05822   0.04543  -0.13545
  54        5D-2       -0.19589  -0.10992  -0.01558  -0.12942   0.01408
  55 4   H  1S         -0.15421  -0.26348  -0.02966  -0.39443   0.67491
  56        2S          0.63020   0.93092   0.04494   0.74198  -1.03106
  57        3S         -0.20155  -0.17328  -0.03250  -0.24607   0.50019
  58        4PX         0.28076  -0.41466  -0.11018  -0.55154  -0.18551
  59        4PY        -0.07339  -0.20244   0.00101   0.12033   0.31121
  60        4PZ         0.31141   0.04160  -0.23581  -0.00332  -0.27926
  61 5   H  1S          0.05957  -0.00311   0.03704   0.04797   0.09582
  62        2S          0.02946   0.02978  -0.06398   0.05728  -0.12527
  63        3S          0.06098   0.03357   0.10496   0.15411   0.03006
  64        4PX         0.56779  -0.20349   0.02100  -0.24436  -0.14096
  65        4PY         0.04981  -0.16936  -0.10039  -0.21774  -0.12931
  66        4PZ         0.48367   0.12572  -0.11810  -0.09068   0.04076
                          41        42        43        44        45
                           V         V         V         V         V
     Eigenvalues --     1.91773   2.08005   2.10558   2.23224   2.26222
   1 1   N  1S         -0.00494   0.00328   0.00247   0.01150   0.00032
   2        2S         -0.01025   0.00828   0.00518   0.02902   0.00159
   3        2PX         0.01615   0.00367  -0.00949   0.05853  -0.02409
   4        2PY        -0.01883   0.05816  -0.02257   0.12924   0.05837
   5        2PZ        -0.04131   0.03411   0.01023  -0.07681   0.11917
   6        3S          0.15850  -0.06355  -0.01616  -0.25975  -0.04771
   7        3PX        -0.08240   0.02752   0.00472   0.07040   0.00647
   8        3PY        -0.01815  -0.00359  -0.03163  -0.02419   0.00597
   9        3PZ        -0.00804   0.02783   0.01089  -0.00482   0.00556
  10        4S         -0.79465   0.13527   0.02668  -0.28250   0.45863
  11        4PX         3.26889   0.88305   0.71374   0.93399   0.20783
  12        4PY        -0.26562   0.15838   0.09464   0.40580   0.28067
  13        4PZ        -0.19777   0.04298   0.13844   0.02771   0.38689
  14        5D 0        0.05979   0.19963  -0.36287  -0.26001  -0.03770
  15        5D+1        0.19576   0.03747   0.02619  -0.08048  -0.01979
  16        5D-1        0.03456  -0.37136  -0.30204   0.19638   0.15920
  17        5D+2       -0.10212   0.15301  -0.26517   0.15640   0.02087
  18        5D-2        0.36346   0.06832  -0.06057   0.09342   0.01883
  19 2   N  1S          0.00323   0.00294  -0.00147   0.01156   0.00240
  20        2S          0.00589   0.00647  -0.00390   0.02872   0.00534
  21        2PX         0.04561   0.01386   0.00887  -0.00475   0.01148
  22        2PY        -0.04349   0.01389   0.00876   0.02033  -0.00471
  23        2PZ        -0.03971  -0.00004   0.00094  -0.00191   0.01707
  24        3S         -0.03679  -0.03994   0.03460  -0.23825  -0.03266
  25        3PX         0.09958   0.06807  -0.01266   0.22578   0.04356
  26        3PY        -0.06765   0.02581  -0.00841   0.07001   0.01839
  27        3PZ        -0.05380   0.01013   0.00817   0.00146   0.02671
  28        4S         -2.17905  -0.75204  -0.60268  -0.53968  -0.35804
  29        4PX         0.67331   0.26408   0.23576   0.09419   0.16142
  30        4PY         0.47881   0.01422   0.04986  -0.17296  -0.06689
  31        4PZ         0.17152  -0.00897  -0.03759   0.04391  -0.22752
  32        5D 0        0.10250  -0.38205   0.55758   0.00351   0.01157
  33        5D+1       -0.24127  -0.03087  -0.04351  -0.16170   0.44530
  34        5D-1       -0.16850   0.60425   0.42036  -0.19700  -0.02008
  35        5D+2        0.20347  -0.23953   0.30134   0.04420  -0.10143
  36        5D-2       -0.25289   0.04788   0.08775   0.43830   0.19504
  37 3   N  1S          0.00757   0.01242   0.00469   0.02136   0.00195
  38        2S          0.02519   0.03198   0.01417   0.04999   0.00118
  39        2PX        -0.02025  -0.00492  -0.02119   0.04512  -0.00651
  40        2PY         0.09868   0.00994  -0.06956   0.05126   0.02928
  41        2PZ         0.09337   0.05963   0.03312  -0.01611   0.00569
  42        3S         -0.51092  -0.32158  -0.16486  -0.45695   0.03982
  43        3PX         0.18148   0.13154   0.10939  -0.03937   0.00926
  44        3PY        -0.06624   0.19207   0.12152   0.21820  -0.17322
[...]
                     4                      5                      6
                     A                      A                      A
 Frequencies --   795.8754              1018.5913              1292.8296
 Red. masses --     1.6314                 1.5100                 2.5148
 Frc consts  --     0.6088                 0.9231                 2.4765
 IR Inten    --    85.0736                53.5790                 0.8335
  Atom  AN      X      Y      Z        X      Y      Z        X      Y      Z
     1   7     0.01   0.02   0.11    -0.08   0.07  -0.00     0.07   0.01  -0.01
     2   7     0.02  -0.01  -0.03    -0.08   0.00  -0.00     0.20   0.04   0.01
     3   7    -0.07  -0.03  -0.17     0.11  -0.09   0.01    -0.25  -0.08   0.02
     4   1     0.20   0.30   0.56    -0.23   0.02  -0.16    -0.65  -0.04  -0.26
     5   1     0.26  -0.17   0.64     0.92   0.17   0.06     0.32   0.54   0.03
                     7                      8                      9
                     A                      A                      A
 Frequencies --  1402.9670              2192.4163              3544.3750
 Red. masses --     1.0931                11.0563                 1.0763
 Frc consts  --     1.2677                31.3118                 7.9662
 IR Inten    --    41.8868               280.1541                60.5245
  Atom  AN      X      Y      Z        X      Y      Z        X      Y      Z
     1   7    -0.01   0.01  -0.02     0.68   0.13   0.01     0.00   0.00  -0.00
     2   7     0.01   0.00   0.00    -0.50  -0.11  -0.01    -0.00  -0.00  -0.00
     3   7     0.07  -0.03   0.01    -0.16  -0.01   0.02     0.04   0.05  -0.03
     4   1    -0.71   0.53   0.04    -0.39   0.05  -0.14    -0.48  -0.71   0.51
     5   1    -0.30  -0.31   0.15     0.15  -0.14  -0.08    -0.00  -0.01  -0.01

 -------------------
 - Thermochemistry -
 -------------------
 Temperature   298.150 Kelvin.  Pressure   1.00000 Atm.
 Atom     1 has atomic number  7 and mass  14.00307
 Atom     2 has atomic number  7 and mass  14.00307
 Atom     3 has atomic number  7 and mass  14.00307
 Atom     4 has atomic number  1 and mass   1.00783
 Atom     5 has atomic number  1 and mass   1.00783
 Molecular mass:    44.02487 amu.
 Principal axes and moments of inertia in atomic units:
                           1         2         3
     Eigenvalues --     9.39919 163.45785 170.14352
           X            0.99954  -0.01894  -0.02375
           Y            0.01887   0.99982  -0.00303
           Z            0.02381   0.00258   0.99971
 This molecule is an asymmetric top.
 Rotational symmetry number  1.
 Rotational temperatures (Kelvin)      9.21503     0.52988     0.50906
 Rotational constants (GHZ):         192.01034    11.04102    10.60717
    1 imaginary frequencies ignored.
 Zero-point vibrational energy      66630.4 (Joules/Mol)
                                   15.92504 (Kcal/Mol)
 Warning -- explicit consideration of   2 degrees of freedom as
           vibrations may cause significant error
 Vibrational temperatures:    574.21   710.15  1145.09  1465.52  1860.09
          (Kelvin)           2018.55  3154.39  5099.56
 
 Zero-point correction=                           0.025378 (Hartree/Particle)
 Thermal correction to Energy=                    0.028883
 Thermal correction to Enthalpy=                  0.029827
 Thermal correction to Gibbs Free Energy=         0.000924
 Sum of electronic and zero-point Energies=           -165.210856
 Sum of electronic and thermal Energies=              -165.207351
 Sum of electronic and thermal Enthalpies=            -165.206407
 Sum of electronic and thermal Free Energies=         -165.235310
 
                     E (Thermal)             CV                S
                      KCal/Mol        Cal/Mol-Kelvin    Cal/Mol-Kelvin
 Total                   18.124              9.975             60.831
 Electronic               0.000              0.000              1.377
 Translational            0.889              2.981             37.273
 Rotational               0.889              2.981             20.197
 Vibrational             16.347              4.013              1.984
 Vibration     1          0.765              1.472              0.966
 Vibration     2          0.849              1.264              0.674
                       Q            Log10(Q)             Ln(Q)
 Total Bot       0.375755D+00         -0.425095         -0.978817
 Total V=0       0.177022D+12         11.248027         25.899539
 Vib (Bot)       0.282729D-11        -11.548629        -26.591702
 Vib (Bot)    1  0.446895D+00         -0.349795         -0.805433
 Vib (Bot)    2  0.334877D+00         -0.475114         -1.093991
 Vib (V=0)       0.133196D+01          0.124492          0.286654
 Vib (V=0)    1  0.117061D+01          0.068411          0.157523
 Vib (V=0)    2  0.110178D+01          0.042096          0.096930
 Electronic      0.200000D+01          0.301030          0.693147
 Translational   0.114816D+08          7.060002         16.256256
 Rotational      0.578765D+04          3.762502          8.663481
 
                                                  reverse IRC, from TS reverse1 f
 req
                                                             IR Spectrum
 
     3                                                2                           1   1         1                                    
     5                                                1                           4   2         0       7          4  3              
     4                                                9                           0   9         1       9          9  9              
     4                                                2                           3   3         9       6          4  9              
 
     X                                                X                           X   X         X       X          X  X              
     X                                                X                           X             X       X          X  X              
     X                                                X                           X             X       X             X              
     X                                                X                                         X       X                            
                                                      X                                                 X                            
                                                      X                                                 X                            
                                                      X                                                                              
                                                      X                                                                              
                                                      X                                                                              
                                                      X                                                                              
                                                      X                                                                              
                                                      X                                                                              
                                                      X                                                                              
                                                      X                                                                              
                                                      X                                                                              
                                                      X                                                                              
                                                      X                                                                              
                                                      X                                                                              
                                                      X                                                                              
                                                      X                                                                              
 
 ***** Axes restored to original set *****
 -------------------------------------------------------------------
 Center     Atomic                   Forces (Hartrees/Bohr)
 Number     Number              X              Y              Z
 -------------------------------------------------------------------
      1        7          -0.026632813   -0.024118053   -0.007443965
      2        7           0.012166012    0.012835057    0.020777395
      3        7           0.033637193    0.045077287   -0.024595311
      4        1           0.002650638   -0.000694635   -0.001432735
      5        1          -0.021821031   -0.033099655    0.012694616
 -------------------------------------------------------------------
 Cartesian Forces:  Max     0.045077287 RMS     0.022511717
 Z-matrix is all fixed cartesians, so copy forces.
 Force constants in Cartesian coordinates: 
                1             2             3             4             5 
      1  0.566704D-01
      2 -0.290595D-01  0.582163D-01
      3 -0.162102D+00  0.558558D-01  0.157239D+01
      4 -0.698711D-02  0.218699D-01  0.629737D-01  0.115700D-01
      5  0.292885D-01 -0.220902D-01 -0.823559D-01 -0.131377D-01  0.979794D-02
      6  0.101538D+00 -0.571157D-01 -0.104502D+01 -0.109075D+00  0.595547D-01
      7 -0.318804D-01  0.399299D-01  0.721583D-01 -0.101855D-01 -0.335783D-01
      8  0.359864D-01  0.779546D-03  0.614093D-01 -0.231103D-01 -0.103435D-01
      9  0.493543D-01 -0.351692D-01 -0.475675D+00  0.529423D-01  0.320977D-01
     10  0.870472D-02  0.907722D-03  0.349894D-01 -0.397602D-03  0.551783D-03
     11  0.102516D-01 -0.137857D-01 -0.670657D-02 -0.318793D-02  0.797006D-02
     12 -0.173050D-01  0.438100D-02 -0.667737D-01 -0.113027D-02 -0.994534D-03
     13 -0.265077D-01 -0.336480D-01 -0.801923D-02  0.600017D-02  0.168756D-01
     14 -0.464670D-01 -0.231199D-01 -0.282026D-01  0.175659D-01  0.146657D-01
     15  0.285152D-01  0.320482D-01  0.150801D-01 -0.571103D-02 -0.830191D-02
                6             7             8             9            10 
      6  0.108052D+01
      7 -0.407040D-01  0.300211D+00
      8 -0.756197D-01 -0.402680D-01 -0.166318D-01
      9 -0.185546D-01  0.182364D+00  0.522186D-01  0.704913D+00
     10  0.175559D-02 -0.275058D+00 -0.309084D-01 -0.224759D+00  0.270058D+00
     11  0.321853D-02 -0.178051D-01 -0.116890D-01  0.154891D-01  0.229600D-01
     12  0.940557D-02 -0.178897D+00 -0.230676D-02 -0.183415D+00  0.193222D+00
     13  0.464853D-01  0.169136D-01  0.583001D-01 -0.599009D-01 -0.330702D-02
     14  0.699622D-01  0.517214D-01  0.378848D-01 -0.646362D-01  0.648881D-02
     15 -0.263531D-01 -0.349208D-01 -0.357014D-01 -0.272685D-01 -0.520750D-02
               11            12            13            14            15 
     11  0.203117D-01
     12 -0.123438D-02  0.235565D+00
     13 -0.122186D-01  0.411066D-02  0.690087D-02
     14 -0.280703D-02  0.154675D-03 -0.293092D-01 -0.266235D-01
     15 -0.107667D-01  0.521831D-02  0.173241D-01  0.227219D-01  0.333232D-01
 Leave Link  716 at Fri Apr 25 17:09:51 2014, MaxMem=   65536000 cpu:       0.2
 (Enter /apps/gaussian/g09/l103.exe)

 GradGradGradGradGradGradGradGradGradGradGradGradGradGradGradGradGradGrad
 Berny optimization.
 Search for a local minimum.
 Step number   1 out of a maximum of    2
 All quantities printed in internal units (Hartrees-Bohrs-Radians)
 Second derivative matrix not updated -- analytic derivatives used.
 The second derivative matrix:
                          X1        Y1        Z1        X2        Y2
           X1           0.05667
           Y1          -0.02906   0.05822
           Z1          -0.16210   0.05586   1.57239
           X2          -0.00699   0.02187   0.06297   0.01157
           Y2           0.02929  -0.02209  -0.08236  -0.01314   0.00980
           Z2           0.10154  -0.05712  -1.04502  -0.10907   0.05955
           X3          -0.03188   0.03993   0.07216  -0.01019  -0.03358
           Y3           0.03599   0.00078   0.06141  -0.02311  -0.01034
           Z3           0.04935  -0.03517  -0.47567   0.05294   0.03210
           X4           0.00870   0.00091   0.03499  -0.00040   0.00055
           Y4           0.01025  -0.01379  -0.00671  -0.00319   0.00797
           Z4          -0.01731   0.00438  -0.06677  -0.00113  -0.00099
           X5          -0.02651  -0.03365  -0.00802   0.00600   0.01688
           Y5          -0.04647  -0.02312  -0.02820   0.01757   0.01467
           Z5           0.02852   0.03205   0.01508  -0.00571  -0.00830
                          Z2        X3        Y3        Z3        X4
           Z2           1.08052
           X3          -0.04070   0.30021
           Y3          -0.07562  -0.04027  -0.01663
           Z3          -0.01855   0.18236   0.05222   0.70491
           X4           0.00176  -0.27506  -0.03091  -0.22476   0.27006
           Y4           0.00322  -0.01781  -0.01169   0.01549   0.02296
           Z4           0.00941  -0.17890  -0.00231  -0.18341   0.19322
           X5           0.04649   0.01691   0.05830  -0.05990  -0.00331
           Y5           0.06996   0.05172   0.03788  -0.06464   0.00649
           Z5          -0.02635  -0.03492  -0.03570  -0.02727  -0.00521
                          Y4        Z4        X5        Y5        Z5
           Y4           0.02031
           Z4          -0.00123   0.23556
           X5          -0.01222   0.00411   0.00690
           Y5          -0.00281   0.00015  -0.02931  -0.02662
           Z5          -0.01077   0.00522   0.01732   0.02272   0.03332
     Eigenvalues ---   -0.19724   0.02983   0.03537   0.07783   0.09496
     Eigenvalues ---    0.14985   0.50026   0.99807   2.50937
 Eigenvalue     1 is  -1.97D-01 should be greater than     0.000000 Eigenvector:
                          Y5        X5        Y3        X1        Y1
   1                   -0.59671  -0.36774   0.35899  -0.31901  -0.26081
                          Z5        X3        X2        Y2        X4
   1                    0.25787   0.23272   0.17946   0.14002   0.12126
 Quadratic step=4.440D-01 exceeds max=3.000D-01 adjusted using Lamda=-8.373D-02.
 Angle between NR and scaled steps=   5.94 degrees.
 Angle between quadratic step and forces=  17.80 degrees.
 Linear search not attempted -- first point.
 TrRot=  0.008457  0.013590 -0.007710  1.004908 -0.004824 -0.994873
 Variable       Old X    -DE/DX   Delta X   Delta X   Delta X     New X
                                 (Linear)    (Quad)   (Total)
    X1       -0.23148  -0.02663   0.00000  -0.11459  -0.10383  -0.33531
    Y1       -0.14858  -0.02412   0.00000  -0.12171  -0.11226  -0.26084
    Z1        0.17134  -0.00744   0.00000  -0.00469  -0.01440   0.15694
    X2       -0.43074   0.01217   0.00000   0.04645   0.04854  -0.38220
    Y2       -0.02792   0.01284   0.00000   0.05535   0.05546   0.02754
    Z2        2.32236   0.02078   0.00000   0.04020   0.03156   2.35392
    X3        0.57902   0.03364   0.00000   0.09165   0.10395   0.68297
    Y3        0.02979   0.04508   0.00000   0.12772   0.15663   0.18641
    Z3       -2.05810  -0.02460   0.00000  -0.05285  -0.05813  -2.11624
    X4       -0.87802   0.00265   0.00000   0.00338   0.02081  -0.85721
    Y4       -0.03085  -0.00069   0.00000  -0.01237   0.00583  -0.02502
    Z4       -3.30698  -0.00143   0.00000   0.02268   0.01253  -3.29445
    X5        2.03372  -0.02182   0.00000  -0.06561  -0.06948   1.96424
    Y5        2.06869  -0.03310   0.00000  -0.14996  -0.10566   1.96304
    Z5       -2.74518   0.01269   0.00000   0.02318   0.02844  -2.71674
         Item               Value     Threshold  Converged?
 Maximum Force            0.045077     0.000450     NO 
 RMS     Force            0.022512     0.000300     NO 
 Maximum Displacement     0.156627     0.001800     NO 
 RMS     Displacement     0.075789     0.001200     NO 
 Predicted change in Energy=-3.181960D-02
 GradGradGradGradGradGradGradGradGradGradGradGradGradGradGradGradGradGrad

 Leave Link  103 at Fri Apr 25 17:09:51 2014, MaxMem=   65536000 cpu:       0.0
 (Enter /apps/gaussian/g09/l9999.exe)

 Test job not archived.
 1\1\GINC-ROMEO167\Freq\UM06\6-311G(d,p)\H2N3(2)\ROOT\25-Apr-2014\0\\#P
  M06 6-311G** FREQ # GFINPUT IOP(6/7=3) POP=FULL\\reverse IRC, from TS
  reverse1 freq\\0,2\N,-0.122495,-0.078624,0.090669\N,-0.227938,-0.0147
 73,1.22894\N,0.306404,0.015762,-1.089101\H,-0.464629,-0.016323,-1.7499
 81\H,1.076198,1.094706,-1.452686\\Version=AM64L-G09RevA.02\State=2-A\H
 F=-165.236234\S2=0.760827\S2-1=0.\S2A=0.750044\RMSD=6.154e-09\RMSF=2.2
 51e-02\ZeroPoint=0.0253782\Thermal=0.0288829\Dipole=-0.3240767,0.11362
 77,-0.9191203\DipoleDeriv=-0.3351957,-0.4934265,0.0245757,-0.3183663,-
 0.2032792,0.1592479,-0.7142604,-0.3912101,1.6605635,-0.070024,0.117241
 3,-0.0658957,0.1492781,-0.0321,-0.1374874,0.8946369,0.7877832,-1.37336
 05,0.4931095,0.7225583,-0.3360751,0.7972628,0.4479599,-0.8823413,-0.41
 383,-0.59045,-0.3036804,0.1826723,-0.0268752,-0.0549168,-0.0666375,0.2
 686972,0.1289873,0.0660425,0.0475907,0.2918264,-0.270562,-0.3194979,0.
 432312,-0.5615371,-0.4812779,0.7315936,0.1674111,0.1462862,-0.275349\P
 olar=22.6973251,10.6119214,21.591212,-13.9243895,-11.5011964,48.257140
 4\PG=C01 [X(H2N3)]\NImag=1\\0.05667044,-0.02905954,0.05821625,-0.16210
 222,0.05585579,1.57238537,-0.00698711,0.02186991,0.06297366,0.01157000
 ,0.02928853,-0.02209019,-0.08235591,-0.01313766,0.00979794,0.10153771,
 -0.05711575,-1.04501696,-0.10907464,0.05955470,1.08051904,-0.03188040,
 0.03992990,0.07215834,-0.01018545,-0.03357829,-0.04070398,0.30021064,0
 .03598643,0.00077955,0.06140930,-0.02311025,-0.01034349,-0.07561974,-0
 .04026797,-0.01663179,0.04935434,-0.03516920,-0.47567484,0.05294227,0.
 03209765,-0.01855459,0.18236372,0.05221863,0.70491288,0.00870472,0.000
 90772,0.03498945,-0.00039760,0.00055178,0.00175559,-0.27505842,-0.0309
 0835,-0.22475947,0.27005832,0.01025157,-0.01378570,-0.00670657,-0.0031
 8793,0.00797006,0.00321853,-0.01780507,-0.01168904,0.01548914,0.022960
 04,0.02031170,-0.01730501,0.00438100,-0.06677369,-0.00113027,-0.000994
 53,0.00940557,-0.17889731,-0.00230676,-0.18341492,0.19322193,-0.001234
 38,0.23556473,-0.02650766,-0.03364800,-0.00801923,0.00600017,0.0168756
 3,0.04648532,0.01691363,0.05830015,-0.05990086,-0.00330702,-0.01221861
 ,0.00411066,0.00690087,-0.04646698,-0.02311991,-0.02820261,0.01756592,
 0.01466568,0.06996225,0.05172142,0.03788477,-0.06463622,0.00648881,-0.
 00280703,0.00015468,-0.02930917,-0.02662351,0.02851518,0.03204817,0.01
 508011,-0.00571103,-0.00830191,-0.02635307,-0.03492077,-0.03570144,-0.
 02726854,-0.00520750,-0.01076672,0.00521831,0.01732411,0.02272190,0.03
 332318\\0.02663281,0.02411805,0.00744396,-0.01216601,-0.01283506,-0.02
 077739,-0.03363719,-0.04507729,0.02459531,-0.00265064,0.00069464,0.001
 43273,0.02182103,0.03309966,-0.01269462\\\@


 A SUCCESSFUL PURSUIT OF SCIENCE MAKES A MAN THE
 BENEFACTOR OF ALL MANKIND OF EVERY AGE.
   --  JOSEPH PRIESTLEY, "EXPERIMENTS AND
 OBSERVATIONS ON DIFFERENT KINDS OF AIR", 1774
 Job cpu time:  0 days  0 hours  1 minutes 56.5 seconds.
 File lengths (MBytes):  RWF=      9 Int=      0 D2E=      0 Chk=      1 Scr=      1
 Normal termination of Gaussian 09 at Fri Apr 25 17:09:51 2014.
************
total 320
drwxrwxr-x 2 henon henon   4096 25 avril 17:09 .
drwxrwxr-x 3 henon henon   4096 25 avril 17:09 ..
-rw-r--r-- 1 henon henon    392 25 avril 17:09 3Rfreq.inp
-rw-rw-r-- 1 henon henon 311990 25 avril 17:09 3Rfreq.out
Run on 12 cores
romeo167
************
