 Entering Gaussian System, Link 0=g09
 Initial command:
 /apps/gaussian/g09/l1.exe /scratch_l/henon/4Rfreq_8727/Gau-8743.inp -scrdir=/scratch_l/henon/4Rfreq_8727/
 Entering Link 1 = /apps/gaussian/g09/l1.exe PID=      8744.
  
 Copyright (c) 1988,1990,1992,1993,1995,1998,2003,2009, Gaussian, Inc.
                  All Rights Reserved.
  
 This is part of the Gaussian(R) 09 program.  It is based on
 the Gaussian(R) 03 system (copyright 2003, Gaussian, Inc.),
 the Gaussian(R) 98 system (copyright 1998, Gaussian, Inc.),
 the Gaussian(R) 94 system (copyright 1995, Gaussian, Inc.),
 the Gaussian 92(TM) system (copyright 1992, Gaussian, Inc.),
 the Gaussian 90(TM) system (copyright 1990, Gaussian, Inc.),
 the Gaussian 88(TM) system (copyright 1988, Gaussian, Inc.),
 the Gaussian 86(TM) system (copyright 1986, Carnegie Mellon
 University), and the Gaussian 82(TM) system (copyright 1983,
 Carnegie Mellon University). Gaussian is a federally registered
 trademark of Gaussian, Inc.
  
 This software contains proprietary and confidential information,
 including trade secrets, belonging to Gaussian, Inc.
  
 This software is provided under written license and may be
 used, copied, transmitted, or stored only in accord with that
 written license.
  
 The following legend is applicable only to US Government
 contracts under FAR:
  
                    RESTRICTED RIGHTS LEGEND
  
 Use, reproduction and disclosure by the US Government is
 subject to restrictions as set forth in subparagraphs (a)
 and (c) of the Commercial Computer Software - Restricted
 Rights clause in FAR 52.227-19.
  
 Gaussian, Inc.
 340 Quinnipiac St., Bldg. 40, Wallingford CT 06492
  
  
 ---------------------------------------------------------------
 Warning -- This program may not be used in any manner that
 competes with the business of Gaussian, Inc. or will provide
 assistance to any competitor of Gaussian, Inc.  The licensee
 of this program is prohibited from giving any competitor of
 Gaussian, Inc. access to this program.  By using this program,
 the user acknowledges that Gaussian, Inc. is engaged in the
 business of creating and licensing software in the field of
 computational chemistry and represents and warrants to the
 licensee that it is not a competitor of Gaussian, Inc. and that
 it will not use this program in any manner prohibited above.
 ---------------------------------------------------------------
  

 Cite this work as:
 Gaussian 09, Revision A.02,
 M. J. Frisch, G. W. Trucks, H. B. Schlegel, G. E. Scuseria, 
 M. A. Robb, J. R. Cheeseman, G. Scalmani, V. Barone, B. Mennucci, 
 G. A. Petersson, H. Nakatsuji, M. Caricato, X. Li, H. P. Hratchian, 
 A. F. Izmaylov, J. Bloino, G. Zheng, J. L. Sonnenberg, M. Hada, 
 M. Ehara, K. Toyota, R. Fukuda, J. Hasegawa, M. Ishida, T. Nakajima, 
 Y. Honda, O. Kitao, H. Nakai, T. Vreven, J. A. Montgomery, Jr., 
 J. E. Peralta, F. Ogliaro, M. Bearpark, J. J. Heyd, E. Brothers, 
 K. N. Kudin, V. N. Staroverov, R. Kobayashi, J. Normand, 
 K. Raghavachari, A. Rendell, J. C. Burant, S. S. Iyengar, J. Tomasi, 
 M. Cossi, N. Rega, J. M. Millam, M. Klene, J. E. Knox, J. B. Cross, 
 V. Bakken, C. Adamo, J. Jaramillo, R. Gomperts, R. E. Stratmann, 
 O. Yazyev, A. J. Austin, R. Cammi, C. Pomelli, J. W. Ochterski, 
 R. L. Martin, K. Morokuma, V. G. Zakrzewski, G. A. Voth, 
 P. Salvador, J. J. Dannenberg, S. Dapprich, A. D. Daniels, 
 O. Farkas, J. B. Foresman, J. V. Ortiz, J. Cioslowski, 
 and D. J. Fox, Gaussian, Inc., Wallingford CT, 2009.
 
 ******************************************
 Gaussian 09:  AM64L-G09RevA.02 11-Jun-2009
                25-Apr-2014 
 ******************************************
 %NPROC=12
 Will use up to   12 processors via shared memory.
 %MEM=500MB
 --------------------------------------------------
 #P M06 6-311G** FREQ # GFINPUT IOP(6/7=3) POP=FULL
 --------------------------------------------------
 1/10=4,30=1,38=1/1,3;
 2/12=2,17=6,18=5,40=1/2;
 3/5=4,6=6,7=101,11=2,16=1,24=10,25=1,30=1,71=2,74=-54/1,2,3;
 4//1;
 5/5=2,38=5,98=1/2;
 8/6=4,10=90,11=11/1;
 11/6=1,8=1,9=11,15=111,16=1/1,2,10;
 10/6=1/2;
 6/7=3,18=1,28=1/1;
 7/8=1,10=1,25=1/1,2,3,16;
 1/10=4,30=1/3;
 99//99;
 Leave Link    1 at Fri Apr 25 17:09:51 2014, MaxMem=   65536000 cpu:       0.4
 (Enter /apps/gaussian/g09/l101.exe)
 ----------------------------------
 reverse IRC, from TS reverse1 freq
 ----------------------------------
 Symbolic Z-matrix:
 Charge =  0 Multiplicity = 2
 7                    -0.1275   -0.08295   0.08936 
 7                    -0.22566  -0.01247   1.23279 
 7                     0.31248   0.02381  -1.09367 
 1                    -0.45815  -0.01881  -1.75356 
 1                     1.0231    1.01342  -1.42085 
 
 NAtoms=      5 NQM=      5 NQMF=      0 NMic=      0 NMicF=      0 NTot=      5.
                    Isotopes and Nuclear Properties:
 (Nuclear quadrupole moments (NQMom) in fm**2, nuclear magnetic moments (NMagM)
  in nuclear magnetons)

  Atom         1           2           3           4           5
 IAtWgt=          14          14          14           1           1
 AtmWgt=  14.0030740  14.0030740  14.0030740   1.0078250   1.0078250
 NucSpn=           2           2           2           1           1
 AtZEff=   0.0000000   0.0000000   0.0000000   0.0000000   0.0000000
 NQMom=    2.0440000   2.0440000   2.0440000   0.0000000   0.0000000
 NMagM=    0.4037610   0.4037610   0.4037610   2.7928460   2.7928460
 Leave Link  101 at Fri Apr 25 17:09:51 2014, MaxMem=   65536000 cpu:       0.6
 (Enter /apps/gaussian/g09/l103.exe)

 GradGradGradGradGradGradGradGradGradGradGradGradGradGradGradGradGradGrad
 Berny optimization.
 Initialization pass.
 Trust Radius=3.00D-01 FncErr=1.00D-07 GrdErr=1.00D-07
 Number of steps in this run=   2 maximum allowed number of steps=   2.
 GradGradGradGradGradGradGradGradGradGradGradGradGradGradGradGradGradGrad

 Leave Link  103 at Fri Apr 25 17:09:51 2014, MaxMem=   65536000 cpu:       0.1
 (Enter /apps/gaussian/g09/l202.exe)
                          Input orientation:                          
 ---------------------------------------------------------------------
 Center     Atomic      Atomic             Coordinates (Angstroms)
 Number     Number       Type             X           Y           Z
 ---------------------------------------------------------------------
      1          7           0       -0.127496   -0.082947    0.089356
      2          7           0       -0.225660   -0.012473    1.232787
      3          7           0        0.312477    0.023806   -1.093666
      4          1           0       -0.458146   -0.018813   -1.753559
      5          1           0        1.023098    1.013424   -1.420852
 ---------------------------------------------------------------------
                    Distance matrix (angstroms):
                    1          2          3          4          5
     1  N    0.000000
     2  N    1.149799   0.000000
     3  N    1.266694   2.388156   0.000000
     4  H    1.873440   2.995389   1.015448   0.000000
     5  H    2.192401   3.107034   1.261498   1.835835   0.000000
 Stoichiometry    H2N3(2)
 Framework group  C1[X(H2N3)]
 Deg. of freedom     9
 Full point group                 C1      NOp   1
 Largest Abelian subgroup         C1      NOp   1
 Largest concise Abelian subgroup C1      NOp   1
                         Standard orientation:                         
 ---------------------------------------------------------------------
 Center     Atomic      Atomic             Coordinates (Angstroms)
 Number     Number       Type             X           Y           Z
 ---------------------------------------------------------------------
      1          7           0        0.192317   -0.135226   -0.007031
      2          7           0        1.320279    0.085774    0.022911
      3          7           0       -1.062889    0.002547   -0.106986
      4          1           0       -1.533006   -0.750356    0.386230
      5          1           0       -1.614940    1.078695    0.251513
 ---------------------------------------------------------------------
 Rotational constants (GHZ):    207.3033775     11.0094806     10.6076833
 Leave Link  202 at Fri Apr 25 17:09:51 2014, MaxMem=   65536000 cpu:       0.5
 (Enter /apps/gaussian/g09/l301.exe)
 Standard basis: 6-311G(d,p) (5D, 7F)
 Ernie: Thresh=  0.10000D-02 Tol=  0.10000D-05 Strict=F.
 AO basis set in the form of general basis input (Overlap normalization):
      1 0
 S   6 1.00       0.000000000000
      0.6293480000D+04  0.1969788147D-02
      0.9490440000D+03  0.1496128592D-01
      0.2187760000D+03  0.7350053084D-01
      0.6369160000D+02  0.2489367658D+00
      0.1882820000D+02  0.6024594331D+00
      0.2720230000D+01  0.2562017589D+00
 SP   3 1.00       0.000000000000
      0.3063310000D+02  0.1119060795D+00  0.3831191864D-01
      0.7026140000D+01  0.9216666549D+00  0.2374031155D+00
      0.2112050000D+01 -0.2569191826D-02  0.8175923978D+00
 SP   1 1.00       0.000000000000
      0.6840090000D+00  0.1000000000D+01  0.1000000000D+01
 SP   1 1.00       0.000000000000
      0.2008780000D+00  0.1000000000D+01  0.1000000000D+01
 D   1 1.00       0.000000000000
      0.9130000000D+00  0.1000000000D+01
 ****
      2 0
 S   6 1.00       0.000000000000
      0.6293480000D+04  0.1969788147D-02
      0.9490440000D+03  0.1496128592D-01
      0.2187760000D+03  0.7350053084D-01
      0.6369160000D+02  0.2489367658D+00
      0.1882820000D+02  0.6024594331D+00
      0.2720230000D+01  0.2562017589D+00
 SP   3 1.00       0.000000000000
      0.3063310000D+02  0.1119060795D+00  0.3831191864D-01
      0.7026140000D+01  0.9216666549D+00  0.2374031155D+00
      0.2112050000D+01 -0.2569191826D-02  0.8175923978D+00
 SP   1 1.00       0.000000000000
      0.6840090000D+00  0.1000000000D+01  0.1000000000D+01
 SP   1 1.00       0.000000000000
      0.2008780000D+00  0.1000000000D+01  0.1000000000D+01
 D   1 1.00       0.000000000000
      0.9130000000D+00  0.1000000000D+01
 ****
      3 0
 S   6 1.00       0.000000000000
      0.6293480000D+04  0.1969788147D-02
      0.9490440000D+03  0.1496128592D-01
      0.2187760000D+03  0.7350053084D-01
      0.6369160000D+02  0.2489367658D+00
      0.1882820000D+02  0.6024594331D+00
      0.2720230000D+01  0.2562017589D+00
 SP   3 1.00       0.000000000000
      0.3063310000D+02  0.1119060795D+00  0.3831191864D-01
      0.7026140000D+01  0.9216666549D+00  0.2374031155D+00
      0.2112050000D+01 -0.2569191826D-02  0.8175923978D+00
 SP   1 1.00       0.000000000000
      0.6840090000D+00  0.1000000000D+01  0.1000000000D+01
 SP   1 1.00       0.000000000000
      0.2008780000D+00  0.1000000000D+01  0.1000000000D+01
 D   1 1.00       0.000000000000
      0.9130000000D+00  0.1000000000D+01
 ****
      4 0
 S   3 1.00       0.000000000000
      0.3386500000D+02  0.2549381454D-01
      0.5094790000D+01  0.1903731086D+00
      0.1158790000D+01  0.8521614860D+00
 S   1 1.00       0.000000000000
      0.3258400000D+00  0.1000000000D+01
 S   1 1.00       0.000000000000
      0.1027410000D+00  0.1000000000D+01
 P   1 1.00       0.000000000000
      0.7500000000D+00  0.1000000000D+01
 ****
      5 0
 S   3 1.00       0.000000000000
      0.3386500000D+02  0.2549381454D-01
      0.5094790000D+01  0.1903731086D+00
      0.1158790000D+01  0.8521614860D+00
 S   1 1.00       0.000000000000
      0.3258400000D+00  0.1000000000D+01
 S   1 1.00       0.000000000000
      0.1027410000D+00  0.1000000000D+01
 P   1 1.00       0.000000000000
      0.7500000000D+00  0.1000000000D+01
 ****

 There are    66 symmetry adapted basis functions of A   symmetry.
 Integral buffers will be    131072 words long.
 Raffenetti 2 integral format.
 Two-electron integral symmetry is turned on.
    66 basis functions,   112 primitive gaussians,    69 cartesian basis functions
    12 alpha electrons       11 beta electrons
       nuclear repulsion energy        66.8476726091 Hartrees.
 IExCor= 4235 DFT=T Ex+Corr=M06 ExCW=0 ScaHFX=  0.270000
 ScaDFX=  1.000000  1.000000  1.000000  1.000000 ScalE2=  1.000000  1.000000
 IRadAn=      0 IRanWt=     -1 IRanGd=            0 ICorTp=0
 NAtoms=    5 NActive=    5 NUniq=    5 SFac= 7.50D-01 NAtFMM=   80 NAOKFM=F Big=F
 Leave Link  301 at Fri Apr 25 17:09:51 2014, MaxMem=   65536000 cpu:       0.4
 (Enter /apps/gaussian/g09/l302.exe)
 NPDir=0 NMtPBC=     1 NCelOv=     1 NCel=       1 NClECP=     1 NCelD=      1
         NCelK=      1 NCelE2=     1 NClLst=     1 CellRange=     0.0.
 One-electron integrals computed using PRISM.
 NBasis=    66 RedAO= T  NBF=    66
 NBsUse=    66 1.00D-06 NBFU=    66
 Precomputing XC quadrature grid using
 IXCGrd= 2 IRadAn=           0 IRanWt=          -1 IRanGd=           0 AccXCQ= 1.00D-10.
 NRdTot=     311 NPtTot=       39306 NUsed=       41561 NTot=       41593
 NSgBfM=    69    69    69    69    69 NAtAll=     5     5.
 Leave Link  302 at Fri Apr 25 17:09:52 2014, MaxMem=   65536000 cpu:       2.5
 (Enter /apps/gaussian/g09/l303.exe)
 DipDrv:  MaxL=1.
 Leave Link  303 at Fri Apr 25 17:09:52 2014, MaxMem=   65536000 cpu:       0.2
 (Enter /apps/gaussian/g09/l401.exe)
 Harris functional with IExCor= 1009 diagonalized for initial guess.
 ExpMin= 1.03D-01 ExpMax= 6.29D+03 ExpMxC= 9.49D+02 IAcc=1 IRadAn=         1 AccDes= 0.00D+00
 HarFok:  IExCor= 1009 AccDes= 0.00D+00 IRadAn=         1 IDoV= 1
 ScaDFX=  1.000000  1.000000  1.000000  1.000000
 FoFCou: FMM=F IPFlag=           0 FMFlag=      100000 FMFlg1=           0
         NFxFlg=           0 DoJE=T BraDBF=F KetDBF=T FulRan=T
         Omega=  0.000000  0.000000  1.000000  0.000000  0.000000 ICntrl=     500 IOpCl=  0
         NMat0=    1 NMatS0=    1 NMatT0=    0 NMatD0=    1 NMtDS0=    0 NMtDT0=    0
         I1Cent=           4 NGrid=           0.
 Petite list used in FoFCou.
 Harris En= -165.204186908520    
 Initial guess orbital symmetries:
 Alpha Orbitals:
       Occupied  (A) (A) (A) (A) (A) (A) (A) (A) (A) (A) (A) (A)
       Virtual   (A) (A) (A) (A) (A) (A) (A) (A) (A) (A) (A) (A)
                 (A) (A) (A) (A) (A) (A) (A) (A) (A) (A) (A) (A)
                 (A) (A) (A) (A) (A) (A) (A) (A) (A) (A) (A) (A)
                 (A) (A) (A) (A) (A) (A) (A) (A) (A) (A) (A) (A)
                 (A) (A) (A) (A) (A) (A)
 Beta  Orbitals:
       Occupied  (A) (A) (A) (A) (A) (A) (A) (A) (A) (A) (A)
       Virtual   (A) (A) (A) (A) (A) (A) (A) (A) (A) (A) (A) (A)
                 (A) (A) (A) (A) (A) (A) (A) (A) (A) (A) (A) (A)
                 (A) (A) (A) (A) (A) (A) (A) (A) (A) (A) (A) (A)
                 (A) (A) (A) (A) (A) (A) (A) (A) (A) (A) (A) (A)
                 (A) (A) (A) (A) (A) (A) (A)
 The electronic state of the initial guess is 2-A.
 Initial guess <Sx>= 0.0000 <Sy>= 0.0000 <Sz>= 0.5000 <S**2>= 0.7500 S= 0.5000
 Leave Link  401 at Fri Apr 25 17:09:52 2014, MaxMem=   65536000 cpu:       2.7
 (Enter /apps/gaussian/g09/l502.exe)
 UHF open shell SCF:
 Requested convergence on RMS density matrix=1.00D-08 within 128 cycles.
 Requested convergence on MAX density matrix=1.00D-06.
 Requested convergence on             energy=1.00D-06.
 No special actions if energy rises.
 Using DIIS extrapolation, IDIIS=  1040.
 Integral symmetry usage will be decided dynamically.
        41503 words used for storage of precomputed grid.
 Keep R1 and R2 ints in memory in canonical form, NReq=6799076.
 IEnd=       75273 IEndB=       75273 NGot=    65536000 MDV=    59647530
 LenX=    59647530 LenY=    59642328
 Symmetry not used in FoFDir.
 MinBra= 0 MaxBra= 2 Meth= 1.
 IRaf=       0 NMat=   1 IRICut=       1 DoRegI=T DoRafI=F ISym2E= 0 JSym2E=0.
 Integral accuracy reduced to 1.0D-05 until final iterations.

 Cycle   1  Pass 0  IDiag  1:
 E= -165.197277273250    
 DIIS: error= 3.34D-02 at cycle   1 NSaved=   1.
 NSaved= 1 IEnMin= 1 EnMin= -165.197277273250     IErMin= 1 ErrMin= 3.34D-02
 ErrMax= 3.34D-02 EMaxC= 1.00D-01 BMatC= 2.10D-01 BMatP= 2.10D-01
 IDIUse=3 WtCom= 6.66D-01 WtEn= 3.34D-01
 Coeff-Com:  0.100D+01
 Coeff-En:   0.100D+01
 Coeff:      0.100D+01
 Gap=     0.159 Goal=   None    Shift=    0.000
 Gap=     0.277 Goal=   None    Shift=    0.000
 GapD=    0.159 DampG=1.000 DampE=0.500 DampFc=0.5000 IDamp=-1.
 Damping current iteration by 5.00D-01
 RMSDP=1.14D-02 MaxDP=3.23D-01              OVMax= 3.69D-01

 Cycle   2  Pass 0  IDiag  1:
 E= -165.201325613296     Delta-E=       -0.004048340046 Rises=F Damp=T
 DIIS: error= 2.06D-02 at cycle   2 NSaved=   2.
 NSaved= 2 IEnMin= 2 EnMin= -165.201325613296     IErMin= 2 ErrMin= 2.06D-02
 ErrMax= 2.06D-02 EMaxC= 1.00D-01 BMatC= 6.42D-02 BMatP= 2.10D-01
 IDIUse=3 WtCom= 7.94D-01 WtEn= 2.06D-01
 Coeff-Com:  0.308D+00 0.692D+00
 Coeff-En:   0.466D+00 0.534D+00
 Coeff:      0.340D+00 0.660D+00
 Gap=     0.145 Goal=   None    Shift=    0.000
 Gap=     0.269 Goal=   None    Shift=    0.000
 RMSDP=3.02D-03 MaxDP=7.99D-02 DE=-4.05D-03 OVMax= 2.59D-01

 Cycle   3  Pass 0  IDiag  1:
 E= -165.239452872328     Delta-E=       -0.038127259033 Rises=F Damp=F
 DIIS: error= 1.63D-02 at cycle   3 NSaved=   3.
 NSaved= 3 IEnMin= 3 EnMin= -165.239452872328     IErMin= 3 ErrMin= 1.63D-02
 ErrMax= 1.63D-02 EMaxC= 1.00D-01 BMatC= 3.96D-02 BMatP= 6.42D-02
 IDIUse=3 WtCom= 8.37D-01 WtEn= 1.63D-01
 Coeff-Com:  0.127D+00 0.412D+00 0.460D+00
 Coeff-En:   0.000D+00 0.000D+00 0.100D+01
 Coeff:      0.107D+00 0.345D+00 0.548D+00
 Gap=     0.142 Goal=   None    Shift=    0.000
 Gap=     0.277 Goal=   None    Shift=    0.000
 RMSDP=1.43D-03 MaxDP=2.48D-02 DE=-3.81D-02 OVMax= 5.17D-02

 Cycle   4  Pass 0  IDiag  1:
 E= -165.245525545426     Delta-E=       -0.006072673098 Rises=F Damp=F
 DIIS: error= 8.86D-03 at cycle   4 NSaved=   4.
 NSaved= 4 IEnMin= 4 EnMin= -165.245525545426     IErMin= 4 ErrMin= 8.86D-03
 ErrMax= 8.86D-03 EMaxC= 1.00D-01 BMatC= 1.12D-02 BMatP= 3.96D-02
 IDIUse=3 WtCom= 9.11D-01 WtEn= 8.86D-02
 Coeff-Com:  0.234D-01 0.106D-01 0.337D+00 0.629D+00
 Coeff-En:   0.000D+00 0.000D+00 0.258D+00 0.742D+00
 Coeff:      0.213D-01 0.968D-02 0.330D+00 0.639D+00
 Gap=     0.146 Goal=   None    Shift=    0.000
 Gap=     0.271 Goal=   None    Shift=    0.000
 RMSDP=6.27D-04 MaxDP=1.20D-02 DE=-6.07D-03 OVMax= 2.02D-02

 Cycle   5  Pass 0  IDiag  1:
 E= -165.247887745263     Delta-E=       -0.002362199836 Rises=F Damp=F
 DIIS: error= 8.89D-04 at cycle   5 NSaved=   5.
 NSaved= 5 IEnMin= 5 EnMin= -165.247887745263     IErMin= 5 ErrMin= 8.89D-04
 ErrMax= 8.89D-04 EMaxC= 1.00D-01 BMatC= 1.25D-04 BMatP= 1.12D-02
 IDIUse=3 WtCom= 9.91D-01 WtEn= 8.89D-03
 Coeff-Com: -0.174D-02-0.189D-01 0.466D-01 0.158D+00 0.816D+00
 Coeff-En:   0.000D+00 0.000D+00 0.000D+00 0.000D+00 0.100D+01
 Coeff:     -0.173D-02-0.187D-01 0.462D-01 0.157D+00 0.818D+00
 Gap=     0.147 Goal=   None    Shift=    0.000
 Gap=     0.271 Goal=   None    Shift=    0.000
 RMSDP=1.07D-04 MaxDP=1.58D-03 DE=-2.36D-03 OVMax= 4.42D-03

 Cycle   6  Pass 0  IDiag  1:
 E= -165.247934819671     Delta-E=       -0.000047074408 Rises=F Damp=F
 DIIS: error= 5.30D-04 at cycle   6 NSaved=   6.
 NSaved= 6 IEnMin= 6 EnMin= -165.247934819671     IErMin= 6 ErrMin= 5.30D-04
 ErrMax= 5.30D-04 EMaxC= 1.00D-01 BMatC= 4.36D-05 BMatP= 1.25D-04
 IDIUse=3 WtCom= 9.95D-01 WtEn= 5.30D-03
 Coeff-Com: -0.485D-02-0.838D-02-0.406D-01-0.517D-01 0.377D+00 0.729D+00
 Coeff-En:   0.000D+00 0.000D+00 0.000D+00 0.000D+00 0.000D+00 0.100D+01
 Coeff:     -0.483D-02-0.834D-02-0.404D-01-0.515D-01 0.375D+00 0.730D+00
 Gap=     0.147 Goal=   None    Shift=    0.000
 Gap=     0.272 Goal=   None    Shift=    0.000
 RMSDP=1.18D-04 MaxDP=2.92D-03 DE=-4.71D-05 OVMax= 4.55D-03

 Cycle   7  Pass 0  IDiag  1:
 E= -165.247954891559     Delta-E=       -0.000020071889 Rises=F Damp=F
 DIIS: error= 3.03D-04 at cycle   7 NSaved=   7.
 NSaved= 7 IEnMin= 7 EnMin= -165.247954891559     IErMin= 7 ErrMin= 3.03D-04
 ErrMax= 3.03D-04 EMaxC= 1.00D-01 BMatC= 1.46D-05 BMatP= 4.36D-05
 IDIUse=3 WtCom= 9.97D-01 WtEn= 3.03D-03
 Coeff-Com: -0.102D-02 0.255D-02-0.253D-01-0.594D-01-0.189D+00 0.360D+00
 Coeff-Com:  0.912D+00
 Coeff-En:   0.000D+00 0.000D+00 0.000D+00 0.000D+00 0.000D+00 0.000D+00
 Coeff-En:   0.100D+01
 Coeff:     -0.102D-02 0.254D-02-0.252D-01-0.592D-01-0.189D+00 0.359D+00
 Coeff:      0.913D+00
 Gap=     0.147 Goal=   None    Shift=    0.000
 Gap=     0.272 Goal=   None    Shift=    0.000
 RMSDP=5.35D-05 MaxDP=6.85D-04 DE=-2.01D-05 OVMax= 2.19D-03

 Cycle   8  Pass 0  IDiag  1:
 E= -165.247963280659     Delta-E=       -0.000008389099 Rises=F Damp=F
 DIIS: error= 1.02D-04 at cycle   8 NSaved=   8.
 NSaved= 8 IEnMin= 8 EnMin= -165.247963280659     IErMin= 8 ErrMin= 1.02D-04
 ErrMax= 1.02D-04 EMaxC= 1.00D-01 BMatC= 6.44D-07 BMatP= 1.46D-05
 IDIUse=3 WtCom= 9.99D-01 WtEn= 1.02D-03
 Coeff-Com:  0.786D-03 0.414D-03 0.546D-02 0.813D-02-0.374D-01-0.928D-01
 Coeff-Com: -0.634D-01 0.118D+01
 Coeff-En:   0.000D+00 0.000D+00 0.000D+00 0.000D+00 0.000D+00 0.000D+00
 Coeff-En:   0.000D+00 0.100D+01
 Coeff:      0.785D-03 0.414D-03 0.546D-02 0.812D-02-0.374D-01-0.927D-01
 Coeff:     -0.633D-01 0.118D+01
 Gap=     0.147 Goal=   None    Shift=    0.000
 Gap=     0.272 Goal=   None    Shift=    0.000
 RMSDP=2.02D-05 MaxDP=3.37D-04 DE=-8.39D-06 OVMax= 1.05D-03

 Cycle   9  Pass 0  IDiag  1:
 E= -165.247964320002     Delta-E=       -0.000001039343 Rises=F Damp=F
 DIIS: error= 3.27D-05 at cycle   9 NSaved=   9.
 NSaved= 9 IEnMin= 9 EnMin= -165.247964320002     IErMin= 9 ErrMin= 3.27D-05
 ErrMax= 3.27D-05 EMaxC= 1.00D-01 BMatC= 1.17D-07 BMatP= 6.44D-07
 IDIUse=1 WtCom= 1.00D+00 WtEn= 0.00D+00
 Coeff-Com:  0.170D-03-0.294D-03 0.389D-02 0.943D-02 0.268D-01-0.669D-01
 Coeff-Com: -0.134D+00-0.103D-01 0.117D+01
 Coeff:      0.170D-03-0.294D-03 0.389D-02 0.943D-02 0.268D-01-0.669D-01
 Coeff:     -0.134D+00-0.103D-01 0.117D+01
 Gap=     0.147 Goal=   None    Shift=    0.000
 Gap=     0.272 Goal=   None    Shift=    0.000
 RMSDP=8.76D-06 MaxDP=1.64D-04 DE=-1.04D-06 OVMax= 4.94D-04

 Initial convergence to 1.0D-05 achieved.  Increase integral accuracy.
 Cycle  10  Pass 1  IDiag  1:
 E= -165.247914204620     Delta-E=        0.000050115382 Rises=F Damp=F
 DIIS: error= 1.79D-04 at cycle   1 NSaved=   1.
 NSaved= 1 IEnMin= 1 EnMin= -165.247914204620     IErMin= 1 ErrMin= 1.79D-04
 ErrMax= 1.79D-04 EMaxC= 1.00D-01 BMatC= 1.19D-05 BMatP= 1.19D-05
 IDIUse=3 WtCom= 9.98D-01 WtEn= 1.79D-03
 Coeff-Com:  0.100D+01
 Coeff-En:   0.100D+01
 Coeff:      0.100D+01
 Gap=     0.147 Goal=   None    Shift=    0.000
 Gap=     0.272 Goal=   None    Shift=    0.000
 RMSDP=8.76D-06 MaxDP=1.64D-04 DE= 5.01D-05 OVMax= 4.71D-04

 Cycle  11  Pass 1  IDiag  1:
 E= -165.247916683693     Delta-E=       -0.000002479073 Rises=F Damp=F
 DIIS: error= 2.02D-05 at cycle   2 NSaved=   2.
 NSaved= 2 IEnMin= 2 EnMin= -165.247916683693     IErMin= 2 ErrMin= 2.02D-05
 ErrMax= 2.02D-05 EMaxC= 1.00D-01 BMatC= 1.07D-07 BMatP= 1.19D-05
 IDIUse=1 WtCom= 1.00D+00 WtEn= 0.00D+00
 Coeff-Com: -0.626D-02 0.101D+01
 Coeff:     -0.626D-02 0.101D+01
 Gap=     0.147 Goal=   None    Shift=    0.000
 Gap=     0.272 Goal=   None    Shift=    0.000
 RMSDP=7.38D-06 MaxDP=1.22D-04 DE=-2.48D-06 OVMax= 1.06D-04

 Cycle  12  Pass 1  IDiag  1:
 E= -165.247916690341     Delta-E=       -0.000000006648 Rises=F Damp=F
 DIIS: error= 1.82D-05 at cycle   3 NSaved=   3.
 NSaved= 3 IEnMin= 3 EnMin= -165.247916690341     IErMin= 3 ErrMin= 1.82D-05
 ErrMax= 1.82D-05 EMaxC= 1.00D-01 BMatC= 1.02D-07 BMatP= 1.07D-07
 IDIUse=1 WtCom= 1.00D+00 WtEn= 0.00D+00
 Coeff-Com: -0.107D-01 0.500D+00 0.511D+00
 Coeff:     -0.107D-01 0.500D+00 0.511D+00
 Gap=     0.147 Goal=   None    Shift=    0.000
 Gap=     0.272 Goal=   None    Shift=    0.000
 RMSDP=3.64D-06 MaxDP=8.46D-05 DE=-6.65D-09 OVMax= 1.53D-04

 Cycle  13  Pass 1  IDiag  1:
 E= -165.247916711218     Delta-E=       -0.000000020877 Rises=F Damp=F
 DIIS: error= 8.63D-06 at cycle   4 NSaved=   4.
 NSaved= 4 IEnMin= 4 EnMin= -165.247916711218     IErMin= 4 ErrMin= 8.63D-06
 ErrMax= 8.63D-06 EMaxC= 1.00D-01 BMatC= 1.62D-08 BMatP= 1.02D-07
 IDIUse=1 WtCom= 1.00D+00 WtEn= 0.00D+00
 Coeff-Com: -0.440D-02 0.651D-01 0.289D+00 0.650D+00
 Coeff:     -0.440D-02 0.651D-01 0.289D+00 0.650D+00
 Gap=     0.147 Goal=   None    Shift=    0.000
 Gap=     0.272 Goal=   None    Shift=    0.000
 RMSDP=7.64D-07 MaxDP=1.04D-05 DE=-2.09D-08 OVMax= 3.00D-05

 Cycle  14  Pass 1  IDiag  1:
 E= -165.247916714710     Delta-E=       -0.000000003492 Rises=F Damp=F
 DIIS: error= 2.82D-06 at cycle   5 NSaved=   5.
 NSaved= 5 IEnMin= 5 EnMin= -165.247916714710     IErMin= 5 ErrMin= 2.82D-06
 ErrMax= 2.82D-06 EMaxC= 1.00D-01 BMatC= 1.43D-09 BMatP= 1.62D-08
 IDIUse=1 WtCom= 1.00D+00 WtEn= 0.00D+00
 Coeff-Com: -0.139D-02-0.734D-02 0.122D+00 0.286D+00 0.601D+00
 Coeff:     -0.139D-02-0.734D-02 0.122D+00 0.286D+00 0.601D+00
 Gap=     0.147 Goal=   None    Shift=    0.000
 Gap=     0.272 Goal=   None    Shift=    0.000
 RMSDP=4.34D-07 MaxDP=9.55D-06 DE=-3.49D-09 OVMax= 1.35D-05

 Cycle  15  Pass 1  IDiag  1:
 E= -165.247916714980     Delta-E=       -0.000000000271 Rises=F Damp=F
 DIIS: error= 3.51D-06 at cycle   6 NSaved=   6.
 NSaved= 6 IEnMin= 6 EnMin= -165.247916714980     IErMin= 5 ErrMin= 2.82D-06
 ErrMax= 3.51D-06 EMaxC= 1.00D-01 BMatC= 9.61D-10 BMatP= 1.43D-09
 IDIUse=1 WtCom= 1.00D+00 WtEn= 0.00D+00
 Coeff-Com:  0.285D-03-0.309D-01 0.628D-02 0.230D-02 0.471D+00 0.551D+00
 Coeff:      0.285D-03-0.309D-01 0.628D-02 0.230D-02 0.471D+00 0.551D+00
 Gap=     0.147 Goal=   None    Shift=    0.000
 Gap=     0.272 Goal=   None    Shift=    0.000
 RMSDP=2.48D-07 MaxDP=3.58D-06 DE=-2.71D-10 OVMax= 1.25D-05

 Cycle  16  Pass 1  IDiag  1:
 E= -165.247916715270     Delta-E=       -0.000000000290 Rises=F Damp=F
 DIIS: error= 1.06D-06 at cycle   7 NSaved=   7.
 NSaved= 7 IEnMin= 7 EnMin= -165.247916715270     IErMin= 7 ErrMin= 1.06D-06
 ErrMax= 1.06D-06 EMaxC= 1.00D-01 BMatC= 1.15D-10 BMatP= 9.61D-10
 IDIUse=1 WtCom= 1.00D+00 WtEn= 0.00D+00
 Coeff-Com:  0.591D-03-0.108D-01-0.259D-01-0.847D-01-0.360D-01 0.242D+00
 Coeff-Com:  0.915D+00
 Coeff:      0.591D-03-0.108D-01-0.259D-01-0.847D-01-0.360D-01 0.242D+00
 Coeff:      0.915D+00
 Gap=     0.147 Goal=   None    Shift=    0.000
 Gap=     0.272 Goal=   None    Shift=    0.000
 RMSDP=2.36D-07 MaxDP=5.44D-06 DE=-2.90D-10 OVMax= 1.03D-05

 Cycle  17  Pass 1  IDiag  1:
 E= -165.247916715340     Delta-E=       -0.000000000070 Rises=F Damp=F
 DIIS: error= 3.92D-07 at cycle   8 NSaved=   8.
 NSaved= 8 IEnMin= 8 EnMin= -165.247916715340     IErMin= 8 ErrMin= 3.92D-07
 ErrMax= 3.92D-07 EMaxC= 1.00D-01 BMatC= 2.42D-11 BMatP= 1.15D-10
 IDIUse=1 WtCom= 1.00D+00 WtEn= 0.00D+00
 Coeff-Com:  0.198D-03 0.193D-02-0.124D-01-0.408D-01-0.128D+00-0.120D-01
 Coeff-Com:  0.439D+00 0.751D+00
 Coeff:      0.198D-03 0.193D-02-0.124D-01-0.408D-01-0.128D+00-0.120D-01
 Coeff:      0.439D+00 0.751D+00
 Gap=     0.147 Goal=   None    Shift=    0.000
 Gap=     0.272 Goal=   None    Shift=    0.000
 RMSDP=7.07D-08 MaxDP=1.09D-06 DE=-7.00D-11 OVMax= 3.28D-06

 Cycle  18  Pass 1  IDiag  1:
 E= -165.247916715355     Delta-E=       -0.000000000014 Rises=F Damp=F
 DIIS: error= 1.51D-07 at cycle   9 NSaved=   9.
 NSaved= 9 IEnMin= 9 EnMin= -165.247916715355     IErMin= 9 ErrMin= 1.51D-07
 ErrMax= 1.51D-07 EMaxC= 1.00D-01 BMatC= 2.28D-12 BMatP= 2.42D-11
 IDIUse=1 WtCom= 1.00D+00 WtEn= 0.00D+00
 Coeff-Com: -0.614D-04 0.146D-02 0.147D-02 0.110D-01-0.435D-02-0.436D-01
 Coeff-Com: -0.117D+00 0.105D+00 0.105D+01
 Coeff:     -0.614D-04 0.146D-02 0.147D-02 0.110D-01-0.435D-02-0.436D-01
 Coeff:     -0.117D+00 0.105D+00 0.105D+01
 Gap=     0.147 Goal=   None    Shift=    0.000
 Gap=     0.272 Goal=   None    Shift=    0.000
 RMSDP=2.79D-08 MaxDP=4.28D-07 DE=-1.45D-11 OVMax= 1.33D-06

 Cycle  19  Pass 1  IDiag  1:
 E= -165.247916715358     Delta-E=       -0.000000000003 Rises=F Damp=F
 DIIS: error= 6.18D-08 at cycle  10 NSaved=  10.
 NSaved=10 IEnMin=10 EnMin= -165.247916715358     IErMin=10 ErrMin= 6.18D-08
 ErrMax= 6.18D-08 EMaxC= 1.00D-01 BMatC= 5.35D-13 BMatP= 2.28D-12
 IDIUse=1 WtCom= 1.00D+00 WtEn= 0.00D+00
 Coeff-Com: -0.357D-04-0.155D-03 0.106D-02 0.777D-02 0.295D-01 0.626D-02
 Coeff-Com: -0.847D-01-0.130D+00-0.134D+00 0.130D+01
 Coeff:     -0.357D-04-0.155D-03 0.106D-02 0.777D-02 0.295D-01 0.626D-02
 Coeff:     -0.847D-01-0.130D+00-0.134D+00 0.130D+01
 Gap=     0.147 Goal=   None    Shift=    0.000
 Gap=     0.272 Goal=   None    Shift=    0.000
 RMSDP=1.92D-08 MaxDP=4.39D-07 DE=-3.47D-12 OVMax= 7.16D-07

 Cycle  20  Pass 1  IDiag  1:
 E= -165.247916715359     Delta-E=       -0.000000000000 Rises=F Damp=F
 DIIS: error= 1.87D-08 at cycle  11 NSaved=  11.
 NSaved=11 IEnMin=11 EnMin= -165.247916715359     IErMin=11 ErrMin= 1.87D-08
 ErrMax= 1.87D-08 EMaxC= 1.00D-01 BMatC= 4.11D-14 BMatP= 5.35D-13
 IDIUse=1 WtCom= 1.00D+00 WtEn= 0.00D+00
 Coeff-Com:  0.467D-05-0.184D-03-0.419D-03-0.614D-03 0.263D-02 0.695D-02
 Coeff-Com:  0.787D-02-0.261D-01-0.144D+00 0.105D+00 0.105D+01
 Coeff:      0.467D-05-0.184D-03-0.419D-03-0.614D-03 0.263D-02 0.695D-02
 Coeff:      0.787D-02-0.261D-01-0.144D+00 0.105D+00 0.105D+01
 Gap=     0.147 Goal=   None    Shift=    0.000
 Gap=     0.272 Goal=   None    Shift=    0.000
 RMSDP=5.72D-09 MaxDP=1.40D-07 DE=-3.13D-13 OVMax= 2.04D-07

 SCF Done:  E(UM06) =  -165.247916715     A.U. after   20 cycles
             Convg  =    0.5720D-08             -V/T =  2.0020
 <Sx>= 0.0000 <Sy>= 0.0000 <Sz>= 0.5000 <S**2>= 0.7564 S= 0.5032
 <L.S>=  0.00000000000    
 KE= 1.649166263408D+02 PE=-5.206149814340D+02 EE= 1.236027657688D+02
 Annihilation of the first spin contaminant:
 S**2 before annihilation     0.7564,   after     0.7500
 Leave Link  502 at Fri Apr 25 17:09:53 2014, MaxMem=   65536000 cpu:      17.2
 (Enter /apps/gaussian/g09/l801.exe)
 Range of M.O.s used for correlation:     1    66
 NBasis=    66 NAE=    12 NBE=    11 NFC=     0 NFV=     0
 NROrb=     66 NOA=    12 NOB=    11 NVA=    54 NVB=    55
 Leave Link  801 at Fri Apr 25 17:09:54 2014, MaxMem=   65536000 cpu:       0.2
 (Enter /apps/gaussian/g09/l1101.exe)
 Using compressed storage, NAtomX=     5.
 Will process   6 centers per pass.
 Leave Link 1101 at Fri Apr 25 17:09:54 2014, MaxMem=   65536000 cpu:       1.2
 (Enter /apps/gaussian/g09/l1102.exe)
 Symmetrizing basis deriv contribution to polar:
 IMax=3 JMax=2 DiffMx= 0.00D+00
 Leave Link 1102 at Fri Apr 25 17:09:54 2014, MaxMem=   65536000 cpu:       0.2
 (Enter /apps/gaussian/g09/l1110.exe)
 Forming Gx(P) for the SCF density, NAtomX=     5.
 Integral derivatives from FoFDir/FoFCou, PRISM(SPDF).
 Do as many integral derivatives as possible in FoFDir.
 G2DrvN: MDV=      65535856.
 G2DrvN: will do     6 centers at a time, making    1 passes doing MaxLOS=2.
 Calling FoFCou, ICntrl=  3107 FMM=F I1Cent=   0 AccDes= 0.00D+00.
 FoFCou: FMM=F IPFlag=           0 FMFlag=      100000 FMFlg1=           0
         NFxFlg=           0 DoJE=F BraDBF=F KetDBF=F FulRan=T
         Omega=  0.000000  0.000000  1.000000  0.000000  0.000000 ICntrl=    3107 IOpCl=  1
         NMat0=    1 NMatS0=    1 NMatT0=    0 NMatD0=    1 NMtDS0=    0 NMtDT0=    0
         I1Cent=           0 NGrid=           0.
 Symmetry not used in FoFCou.
 FoFDir/FoFCou used for L=0 through L=2.
 End of G2Drv Frequency-dependent properties file   721 does not exist.
 End of G2Drv Frequency-dependent properties file   722 does not exist.
 Leave Link 1110 at Fri Apr 25 17:09:55 2014, MaxMem=   65536000 cpu:      16.7
 (Enter /apps/gaussian/g09/l1002.exe)
 Minotr:  UHF open shell wavefunction.
          IDoAtm=11111
          Direct CPHF calculation.
          Differentiating once with respect to electric field.
                with respect to dipole field.
          Differentiating once with respect to nuclear coordinates.
          Requested convergence is 1.0D-08 RMS, and 1.0D-07 maximum.
          Secondary convergence is 1.0D-12 RMS, and 1.0D-12 maximum.
          NewPWx=T KeepS1=F KeepF1=F KeepIn=T MapXYZ=F SortEE=F KeepMc=T.
          MDV=      65535946 using IRadAn=       2.
 Generate precomputed XC quadrature information.
          Keep R1 and R2 ints in memory in canonical form, NReq=6656460.
 Symmetry not used in FoFDir.
 MinBra= 0 MaxBra= 2 Meth= 1.
 IRaf=       0 NMat=   1 IRICut=       1 DoRegI=T DoRafI=F ISym2E= 0 JSym2E=0.
          Solving linear equations simultaneously, MaxMat=       0.
          There are    18 degrees of freedom in the 1st order CPHF.  IDoFFX=5.
     15 vectors produced by pass  0 Test12= 6.96D-15 5.56D-09 XBig12= 1.79D+02 7.43D+00.
 AX will form    15 AO Fock derivatives at one time.
     15 vectors produced by pass  1 Test12= 6.96D-15 5.56D-09 XBig12= 4.05D+01 1.71D+00.
     15 vectors produced by pass  2 Test12= 6.96D-15 5.56D-09 XBig12= 1.16D+00 2.65D-01.
     15 vectors produced by pass  3 Test12= 6.96D-15 5.56D-09 XBig12= 2.33D-02 2.65D-02.
     15 vectors produced by pass  4 Test12= 6.96D-15 5.56D-09 XBig12= 3.23D-04 4.79D-03.
     15 vectors produced by pass  5 Test12= 6.96D-15 5.56D-09 XBig12= 4.00D-06 4.94D-04.
     13 vectors produced by pass  6 Test12= 6.96D-15 5.56D-09 XBig12= 3.04D-08 2.63D-05.
      7 vectors produced by pass  7 Test12= 6.96D-15 5.56D-09 XBig12= 1.33D-10 1.78D-06.
      3 vectors produced by pass  8 Test12= 6.96D-15 5.56D-09 XBig12= 3.76D-13 1.05D-07.
 Inverted reduced A of dimension   113 with in-core refinement.
 FullF1:  Do perturbations    1 to     3.
 Isotropic polarizability for W=    0.000000       29.37 Bohr**3.
 End of Minotr Frequency-dependent properties file   721 does not exist.
 End of Minotr Frequency-dependent properties file   722 does not exist.
 Leave Link 1002 at Fri Apr 25 17:09:57 2014, MaxMem=   65536000 cpu:      24.9
 (Enter /apps/gaussian/g09/l601.exe)
 Copying SCF densities to generalized density rwf, IOpCl= 1 IROHF=0.

 **********************************************************************

            Population analysis using the SCF density.

 **********************************************************************

 Orbital symmetries:
 Alpha Orbitals:
       Occupied  (A) (A) (A) (A) (A) (A) (A) (A) (A) (A) (A) (A)
       Virtual   (A) (A) (A) (A) (A) (A) (A) (A) (A) (A) (A) (A)
                 (A) (A) (A) (A) (A) (A) (A) (A) (A) (A) (A) (A)
                 (A) (A) (A) (A) (A) (A) (A) (A) (A) (A) (A) (A)
                 (A) (A) (A) (A) (A) (A) (A) (A) (A) (A) (A) (A)
                 (A) (A) (A) (A) (A) (A)
 Beta  Orbitals:
       Occupied  (A) (A) (A) (A) (A) (A) (A) (A) (A) (A) (A)
       Virtual   (A) (A) (A) (A) (A) (A) (A) (A) (A) (A) (A) (A)
                 (A) (A) (A) (A) (A) (A) (A) (A) (A) (A) (A) (A)
                 (A) (A) (A) (A) (A) (A) (A) (A) (A) (A) (A) (A)
                 (A) (A) (A) (A) (A) (A) (A) (A) (A) (A) (A) (A)
                 (A) (A) (A) (A) (A) (A) (A)
 The electronic state is 2-A.
 Alpha  occ. eigenvalues --  -14.50509 -14.47951 -14.43133  -1.13565  -0.98535
 Alpha  occ. eigenvalues --   -0.66693  -0.56991  -0.50797  -0.45896  -0.42141
 Alpha  occ. eigenvalues --   -0.32056  -0.15820
 Alpha virt. eigenvalues --   -0.01089   0.02470   0.05311   0.21386   0.28778
 Alpha virt. eigenvalues --    0.35113   0.42808   0.48067   0.51399   0.56192
 Alpha virt. eigenvalues --    0.60521   0.65727   0.69598   0.69910   0.73934
 Alpha virt. eigenvalues --    0.78370   0.88128   0.98410   1.14542   1.26197
 Alpha virt. eigenvalues --    1.38390   1.46205   1.51867   1.61120   1.68077
 Alpha virt. eigenvalues --    1.71230   1.73729   1.86224   1.93296   2.08700
 Alpha virt. eigenvalues --    2.11381   2.24185   2.32525   2.37833   2.43837
 Alpha virt. eigenvalues --    2.48364   2.61294   2.67361   2.84907   3.07952
 Alpha virt. eigenvalues --    3.16024   3.45637   3.55993   3.64170   3.87369
 Alpha virt. eigenvalues --    3.90751   3.92644   4.21548   4.29859   4.39068
 Alpha virt. eigenvalues --    5.10102  35.01820  35.41742  36.07762
  Beta  occ. eigenvalues --  -14.50133 -14.47868 -14.42123  -1.11815  -0.96793
  Beta  occ. eigenvalues --   -0.65898  -0.54938  -0.50063  -0.42878  -0.38651
  Beta  occ. eigenvalues --   -0.31385
  Beta virt. eigenvalues --   -0.04198   0.00598   0.03316   0.07297   0.22152
  Beta virt. eigenvalues --    0.31080   0.35102   0.42877   0.48038   0.51392
  Beta virt. eigenvalues --    0.57055   0.60609   0.66268   0.70156   0.70823
  Beta virt. eigenvalues --    0.74065   0.78667   0.88866   0.98565   1.14370
  Beta virt. eigenvalues --    1.26119   1.38338   1.45620   1.51791   1.61211
  Beta virt. eigenvalues --    1.68781   1.72833   1.74950   1.87079   1.93490
  Beta virt. eigenvalues --    2.11401   2.14016   2.24853   2.30641   2.38348
  Beta virt. eigenvalues --    2.43226   2.48858   2.61472   2.67404   2.85434
  Beta virt. eigenvalues --    3.08472   3.18619   3.45581   3.56915   3.68837
  Beta virt. eigenvalues --    3.87870   3.93764   3.96437   4.21198   4.29873
  Beta virt. eigenvalues --    4.39802   5.10356  35.02716  35.42019  36.08776
     Alpha Molecular Orbital Coefficients:
                           1         2         3         4         5
                           O         O         O         O         O
     Eigenvalues --   -14.50509 -14.47951 -14.43133  -1.13565  -0.98535
   1 1   N  1S          0.55744  -0.00397  -0.00356  -0.10168   0.00777
   2        2S          0.46470  -0.00309  -0.00237  -0.15792   0.01152
   3        2PX        -0.00055  -0.00071   0.00105   0.01806  -0.16348
   4        2PY         0.00056   0.00004   0.00016   0.02020  -0.01121
   5        2PZ        -0.00010  -0.00005   0.00003  -0.00068  -0.00512
   6        3S          0.01785  -0.00078  -0.00251   0.44512  -0.02854
   7        3PX         0.00252   0.00237  -0.00536   0.01278  -0.22164
   8        3PY         0.00095  -0.00011  -0.00086   0.02839  -0.01382
   9        3PZ         0.00003   0.00017  -0.00015  -0.00137  -0.00682
  10        4S         -0.00506   0.00207   0.00339   0.21322  -0.00763
  11        4PX         0.00080  -0.00646   0.00715  -0.01200  -0.04436
  12        4PY        -0.00060   0.00017   0.00061   0.01033  -0.00642
  13        4PZ        -0.00003  -0.00026   0.00031   0.00033  -0.00078
  14        5D 0       -0.00205   0.00062   0.00130  -0.01280  -0.00168
  15        5D+1        0.00032  -0.00023  -0.00011   0.00166   0.00021
  16        5D-1        0.00001   0.00003  -0.00003  -0.00029  -0.00023
  17        5D+2        0.00346  -0.00110  -0.00208   0.01926   0.00296
  18        5D-2        0.00058   0.00028  -0.00091   0.00233  -0.00544
  19 2   N  1S          0.00337  -0.00020   0.55735  -0.06213   0.06928
  20        2S          0.00351  -0.00015   0.46521  -0.09609   0.10825
  21        2PX        -0.00081  -0.00007  -0.00170  -0.07420   0.07149
  22        2PY        -0.00020   0.00004  -0.00023  -0.01321   0.01745
  23        2PZ        -0.00001  -0.00002  -0.00005  -0.00204   0.00177
  24        3S         -0.00275  -0.00004   0.01678   0.26973  -0.30680
  25        3PX         0.00501   0.00012  -0.00376  -0.10179   0.09743
  26        3PY         0.00114  -0.00018  -0.00077  -0.01670   0.02431
  27        3PZ         0.00011   0.00006  -0.00009  -0.00283   0.00230
  28        4S         -0.00053   0.00398  -0.01133   0.10888  -0.16368
  29        4PX        -0.00051  -0.00130   0.00382  -0.01986   0.03105
  30        4PY         0.00013  -0.00058   0.00101  -0.00576   0.00699
  31        4PZ         0.00000  -0.00007   0.00006  -0.00056   0.00040
  32        5D 0        0.00146   0.00002  -0.00114  -0.00823   0.00867
  33        5D+1       -0.00010  -0.00004   0.00011   0.00080  -0.00063
  34        5D-1       -0.00002  -0.00001   0.00001   0.00000  -0.00004
  35        5D+2       -0.00223  -0.00015   0.00188   0.01280  -0.01190
  36        5D-2       -0.00114   0.00018   0.00070   0.00418  -0.00675
  37 3   N  1S          0.00391   0.55767   0.00018  -0.05555  -0.08524
  38        2S          0.00354   0.46499   0.00017  -0.08594  -0.13280
  39        2PX         0.00086   0.00091   0.00013   0.04848   0.04059
  40        2PY        -0.00008  -0.00012   0.00006  -0.00819  -0.01790
  41        2PZ        -0.00001   0.00095  -0.00002   0.01173   0.02218
  42        3S         -0.00074   0.01651  -0.00003   0.24106   0.37509
  43        3PX        -0.00319   0.00030  -0.00032   0.07336   0.06611
  44        3PY         0.00012  -0.00126  -0.00019  -0.00803  -0.02269
  45        3PZ         0.00013   0.00086   0.00005   0.01753   0.03427
  46        4S          0.00174  -0.01105   0.00339   0.10430   0.24127
  47        4PX         0.00135  -0.00302   0.00166   0.00333   0.02206
  48        4PY         0.00027   0.00037  -0.00028  -0.00542  -0.00590
  49        4PZ         0.00024  -0.00068   0.00005   0.00772   0.01665
  50        5D 0        0.00075  -0.00062   0.00005  -0.00598  -0.00736
  51        5D+1       -0.00046  -0.00029   0.00001   0.00203   0.00174
  52        5D-1       -0.00006  -0.00052  -0.00000  -0.00137  -0.00276
  53        5D+2       -0.00159   0.00048  -0.00017   0.00851   0.00839
  54        5D-2        0.00064   0.00035  -0.00020  -0.00125  -0.00383
  55 4   H  1S         -0.00025  -0.00012  -0.00004   0.02807   0.06071
  56        2S         -0.00079  -0.00168   0.00004   0.02509   0.05723
  57        3S          0.00068   0.00128   0.00037  -0.01101  -0.00733
  58        4PX        -0.00015  -0.00091   0.00011   0.00551   0.00860
  59        4PY        -0.00056  -0.00161   0.00000   0.00532   0.01081
  60        4PZ         0.00028   0.00115   0.00000  -0.00313  -0.00683
  61 5   H  1S          0.00007   0.00025   0.00002   0.01271   0.02761
  62        2S         -0.00076   0.00002  -0.00013   0.01490   0.02601
  63        3S          0.00040   0.00057   0.00026  -0.00580  -0.00110
  64        4PX        -0.00023   0.00010  -0.00001   0.00260   0.00329
  65        4PY         0.00029   0.00032   0.00001  -0.00368  -0.00721
  66        4PZ         0.00006   0.00018   0.00001  -0.00113  -0.00181
                           6         7         8         9        10
                           O         O         O         O         O
     Eigenvalues --    -0.66693  -0.56991  -0.50797  -0.45896  -0.42141
   1 1   N  1S         -0.04702   0.01719  -0.01055   0.03405  -0.00282
   2        2S         -0.07492   0.02787  -0.01693   0.05486  -0.00440
   3        2PX        -0.11036   0.00216  -0.01873  -0.11155   0.02900
   4        2PY         0.00942   0.15651   0.03543   0.03247   0.15488
   5        2PZ        -0.02912  -0.01863   0.20547   0.00864  -0.03243
   6        3S          0.22773  -0.08459   0.05139  -0.17026   0.01628
   7        3PX        -0.15465  -0.00192  -0.02865  -0.15552   0.04223
   8        3PY         0.01611   0.24073   0.05494   0.05002   0.23381
   9        3PZ        -0.04561  -0.02829   0.31556   0.01314  -0.04926
  10        4S          0.22079  -0.08148   0.04891  -0.21279   0.01960
  11        4PX        -0.08772   0.05505   0.00383  -0.11511  -0.00863
  12        4PY         0.01000   0.16330   0.03760   0.03332   0.19383
  13        4PZ        -0.01828  -0.02235   0.23033   0.01392  -0.04296
  14        5D 0       -0.00154  -0.00120  -0.00154  -0.00164  -0.00296
  15        5D+1        0.00480   0.00100   0.00075   0.00102  -0.00612
  16        5D-1       -0.00125  -0.00100   0.00774   0.00055  -0.00101
  17        5D+2        0.00063  -0.01279  -0.00192   0.00041  -0.00999
  18        5D-2       -0.00436  -0.01065  -0.00065   0.00691   0.02770
  19 2   N  1S          0.03608  -0.00773   0.01173  -0.07503   0.01991
  20        2S          0.05725  -0.01268   0.01874  -0.11960   0.03190
  21        2PX         0.00357  -0.00930  -0.02373   0.18116  -0.10690
  22        2PY         0.01120   0.07570   0.02090   0.08652   0.15043
  23        2PZ        -0.00862  -0.00905   0.12568   0.01456  -0.03533
  24        3S         -0.16681   0.03885  -0.05483   0.33901  -0.08934
  25        3PX         0.00455  -0.01775  -0.03294   0.24520  -0.15054
  26        3PY         0.01713   0.11553   0.03252   0.12474   0.22691
  27        3PZ        -0.01399  -0.01459   0.19391   0.02136  -0.05310
  28        4S         -0.13475  -0.01070  -0.08263   0.55872  -0.14889
  29        4PX         0.00359   0.01174  -0.01223   0.12290  -0.10148
  30        4PY         0.00408   0.05862   0.02020   0.07841   0.16179
  31        4PZ        -0.00669  -0.00404   0.10714   0.01232  -0.03778
  32        5D 0        0.00140  -0.00117  -0.00238   0.01160  -0.00461
  33        5D+1        0.00337   0.00273  -0.03157  -0.00293   0.00705
  34        5D-1        0.00063  -0.00004  -0.00580  -0.00112   0.00067
  35        5D+2        0.00000   0.00858   0.00465  -0.01660   0.01778
  36        5D-2       -0.00331  -0.01918  -0.00478  -0.01707  -0.02561
  37 3   N  1S          0.04564  -0.01810   0.01952  -0.00244   0.00591
  38        2S          0.07190  -0.02906   0.03122  -0.00394   0.00936
  39        2PX         0.17624  -0.00086   0.02576   0.05810  -0.02026
  40        2PY         0.02311   0.17368   0.01865  -0.04923  -0.11688
  41        2PZ        -0.05110  -0.02308   0.12571   0.00870   0.01796
  42        3S         -0.19881   0.08494  -0.09540   0.01711  -0.02427
  43        3PX         0.25914   0.00226   0.03495   0.08923  -0.02530
  44        3PY         0.03049   0.26528   0.02850  -0.07456  -0.17146
  45        3PZ        -0.07866  -0.03183   0.19439   0.01300   0.02307
  46        4S         -0.25875   0.14720  -0.07423  -0.02135  -0.09460
  47        4PX         0.10735   0.00852   0.04030   0.05736  -0.03788
  48        4PY         0.01758   0.15778   0.01704  -0.04850  -0.13763
  49        4PZ        -0.04921  -0.00989   0.14237   0.00444   0.01190
  50        5D 0       -0.00782  -0.00244   0.00972  -0.00113   0.00161
  51        5D+1        0.00919  -0.00230   0.02501   0.00523  -0.00318
  52        5D-1        0.00558   0.01447  -0.00269  -0.00378  -0.01002
  53        5D+2        0.02027   0.00420   0.00091   0.00578   0.00234
  54        5D-2       -0.00679   0.01425   0.00306   0.00060   0.01557
  55 4   H  1S         -0.13256  -0.08479   0.00325   0.01252   0.09519
  56        2S         -0.15074  -0.11777  -0.00631   0.02274   0.15073
  57        3S         -0.02733  -0.02547   0.00121   0.00296   0.05289
  58        4PX        -0.00010  -0.01127   0.00287   0.00583   0.00648
  59        4PY        -0.01652  -0.00091   0.00192  -0.00068   0.00377
  60        4PZ         0.00768   0.00607   0.00998  -0.00169  -0.00654
  61 5   H  1S         -0.06708   0.09677   0.00469  -0.05080  -0.09130
  62        2S         -0.08483   0.13252   0.00048  -0.08333  -0.14399
  63        3S         -0.02282   0.04366   0.00335  -0.03386  -0.08220
  64        4PX        -0.00015   0.00881   0.00167  -0.00139  -0.00465
  65        4PY         0.01367  -0.01075  -0.00013   0.00552   0.00665
  66        4PZ         0.00188  -0.00561   0.00523   0.00232   0.00398
                          11        12        13        14        15
                           O         O         V         V         V
     Eigenvalues --    -0.32056  -0.15820  -0.01089   0.02470   0.05311
   1 1   N  1S         -0.00545  -0.01897   0.00044  -0.00267  -0.00583
   2        2S         -0.00902  -0.03075   0.00014  -0.00439  -0.00924
   3        2PX        -0.01731  -0.01938  -0.01065  -0.02432   0.00735
   4        2PY        -0.00645  -0.16732   0.08026   0.06841  -0.06701
   5        2PZ        -0.06177  -0.00739  -0.15778   0.16453  -0.03533
   6        3S          0.03158   0.08051   0.01355   0.00997   0.01483
   7        3PX        -0.02691  -0.02235  -0.03845  -0.05589  -0.00264
   8        3PY        -0.00848  -0.25299   0.12261   0.10622  -0.10593
   9        3PZ        -0.09207  -0.01116  -0.24057   0.25136  -0.05318
  10        4S         -0.00543   0.24168  -0.14735   0.01022   0.11603
  11        4PX         0.04385  -0.10422   0.21550   0.07159   0.16572
  12        4PY        -0.01283  -0.33686   0.19095   0.16516  -0.18773
  13        4PZ        -0.09384  -0.01573  -0.35975   0.41780  -0.08763
  14        5D 0       -0.00326   0.00724   0.00138   0.00444   0.00887
  15        5D+1       -0.04586   0.00095   0.02245  -0.01125   0.00080
  16        5D-1       -0.00371   0.00237   0.00154  -0.00416  -0.00435
  17        5D+2        0.00200  -0.01517  -0.00390  -0.00903  -0.01773
  18        5D-2       -0.00615   0.03495  -0.00655  -0.00483  -0.01034
  19 2   N  1S         -0.00064   0.00693   0.00178   0.00534   0.00798
  20        2S         -0.00103   0.01201   0.00264   0.00879   0.01326
  21        2PX         0.02269  -0.00474   0.01254   0.03238   0.02080
  22        2PY        -0.02075   0.21861  -0.07240  -0.05139   0.06439
  23        2PZ        -0.16948   0.00535   0.15739  -0.15089   0.02662
  24        3S          0.00219  -0.05299  -0.00875  -0.03677  -0.05589
  25        3PX         0.03287  -0.00595   0.01542   0.04436   0.02988
  26        3PY        -0.03028   0.31647  -0.10335  -0.07226   0.09392
  27        3PZ        -0.25269   0.00699   0.22233  -0.21366   0.03608
  28        4S         -0.02001   0.06781  -0.15286  -0.09768  -0.13532
  29        4PX         0.03758  -0.06767   0.08064   0.09173   0.06055
  30        4PY        -0.02305   0.41520  -0.15125  -0.12262   0.17175
  31        4PZ        -0.22443   0.01091   0.37866  -0.38227   0.07603
  32        5D 0        0.00170   0.00126  -0.00066  -0.00103  -0.00106
  33        5D+1        0.02261   0.00002   0.00589  -0.00820   0.00267
  34        5D-1        0.00427   0.00019   0.00157  -0.00261  -0.00019
  35        5D+2       -0.00254  -0.00244   0.00323   0.00355   0.00047
  36        5D-2        0.00150  -0.00424  -0.00375  -0.00427   0.00467
  37 3   N  1S          0.02585   0.03070   0.03904   0.02896   0.00724
  38        2S          0.04165   0.04932   0.06200   0.04575   0.01123
  39        2PX         0.03598  -0.02681   0.07142   0.02464  -0.01912
  40        2PY         0.02862  -0.02456  -0.04503  -0.02579   0.18712
  41        2PZ         0.21998  -0.01668   0.02605  -0.12816   0.00250
  42        3S         -0.13062  -0.15163  -0.16763  -0.12086  -0.03023
  43        3PX         0.04897  -0.05561   0.09311   0.01574  -0.05243
  44        3PY         0.04253  -0.03480  -0.06408  -0.04416   0.23578
  45        3PZ         0.32290  -0.02850   0.02504  -0.17855   0.01250
  46        4S         -0.11210  -0.39389  -0.51962  -0.54931  -0.13068
  47        4PX         0.08090  -0.03857   0.31678   0.18453   0.09454
  48        4PY         0.04422  -0.09104  -0.12190  -0.04693   0.64834
  49        4PZ         0.37631  -0.03783   0.06835  -0.37056  -0.01084
  50        5D 0        0.01134  -0.00570  -0.00499  -0.00644   0.00359
  51        5D+1        0.00757  -0.00221  -0.02038   0.01788  -0.00702
  52        5D-1       -0.00188   0.00375  -0.00030  -0.00230  -0.00025
  53        5D+2        0.00110  -0.00520   0.00079  -0.00077   0.00455
  54        5D-2       -0.00108  -0.03213   0.00628   0.00753   0.01108
  55 4   H  1S          0.03182  -0.03224   0.07714   0.02349   0.03601
  56        2S          0.02454  -0.07586   0.12897  -0.01524  -0.04669
  57        3S          0.01955  -0.00894   0.53915   0.77921   1.37532
  58        4PX         0.00522   0.00160  -0.00851  -0.00619  -0.01603
  59        4PY         0.00613  -0.00223  -0.00456  -0.01813  -0.01028
  60        4PZ         0.01839   0.00060   0.00707  -0.00624   0.01880
  61 5   H  1S          0.04068   0.11249   0.06218   0.01808  -0.06418
  62        2S          0.05105   0.26060   0.14044   0.00963  -0.12814
  63        3S          0.04515   0.39313   0.47845   0.39742  -0.95710
  64        4PX         0.00153  -0.00429  -0.00656  -0.00616   0.00256
  65        4PY        -0.00148  -0.00273   0.00630   0.01091  -0.01357
  66        4PZ         0.01081  -0.00076   0.00956  -0.00575  -0.00443
                          16        17        18        19        20
                           V         V         V         V         V
     Eigenvalues --     0.21386   0.28778   0.35113   0.42808   0.48067
   1 1   N  1S         -0.07047   0.01497  -0.00796   0.00482   0.04209
   2        2S         -0.11485   0.02628  -0.01046   0.01362   0.07974
   3        2PX        -0.09557   0.04414   0.02457   0.13024  -0.08840
   4        2PY         0.06478  -0.08256  -0.02525   0.05011   0.03728
   5        2PZ        -0.02280  -0.01805   0.03676  -0.01652  -0.01230
   6        3S          0.30077  -0.12743  -0.04659  -0.21947  -0.55689
   7        3PX        -0.15917   0.04270   0.08982   0.22064  -0.09898
   8        3PY         0.10995  -0.14176  -0.04321   0.08717   0.10864
   9        3PZ        -0.02594  -0.03338   0.05483  -0.06183  -0.01943
  10        4S          2.41619  -0.27786   0.40816   0.99431  -2.04894
  11        4PX        -0.66392   0.70721  -0.24688   4.28624  -2.16751
  12        4PY         0.32957  -0.23258  -0.22432   0.40938  -0.42839
  13        4PZ        -0.15656   0.01250   0.24336   0.21575  -0.00821
  14        5D 0        0.02816   0.00544   0.00297   0.01761   0.00840
  15        5D+1       -0.00763  -0.00735   0.00937  -0.00153  -0.01038
  16        5D-1        0.00111  -0.00437  -0.01716   0.01074   0.00062
  17        5D+2       -0.04747  -0.00423  -0.02244  -0.02465  -0.01780
  18        5D-2       -0.01113  -0.02147  -0.00902   0.00900   0.01158
  19 2   N  1S          0.03762   0.00876   0.01621   0.04629  -0.00640
  20        2S          0.06333   0.01599   0.02861   0.07957  -0.00095
  21        2PX         0.14321   0.00329   0.04820   0.04635   0.05994
  22        2PY        -0.01484   0.00914   0.00288  -0.01346  -0.00772
  23        2PZ         0.01734   0.00778  -0.00127  -0.00500   0.01278
  24        3S         -0.24543  -0.09311  -0.12894  -0.28273  -0.24601
  25        3PX         0.20687   0.02757   0.07989   0.09876   0.32138
  26        3PY        -0.01085  -0.02314  -0.02472  -0.03634   0.04915
  27        3PZ         0.02275   0.01141   0.02791  -0.02853   0.03833
  28        4S         -0.35061  -0.35814   0.07042  -3.99886   3.18443
  29        4PX         0.48069   0.07496   0.06894   2.20969  -2.37085
  30        4PY        -0.13332   0.24723   0.13644   0.58634  -0.52587
  31        4PZ         0.08204   0.01968  -0.15565   0.08083  -0.09996
  32        5D 0       -0.00002  -0.00268  -0.00187   0.00324   0.01780
  33        5D+1        0.00190   0.00326  -0.00589   0.00586   0.00205
  34        5D-1        0.00082   0.00168  -0.00365   0.00189  -0.00142
  35        5D+2        0.00760  -0.00625  -0.00162   0.00024  -0.02089
  36        5D-2       -0.00728   0.01125   0.00467  -0.01107  -0.03147
  37 3   N  1S          0.04300  -0.01954   0.03388  -0.01142   0.01252
  38        2S          0.07093  -0.03111   0.05921  -0.01241   0.02554
  39        2PX        -0.21347  -0.01322   0.01612  -0.08807  -0.10387
  40        2PY         0.00144   0.08851   0.05705  -0.05934  -0.04297
  41        2PZ         0.01264   0.03263  -0.07225  -0.01221   0.03523
  42        3S         -0.21839   0.06874  -0.22362  -0.17455  -0.16456
  43        3PX        -0.29622  -0.06260  -0.01679  -0.36493  -0.39974
  44        3PY         0.01050   0.16813   0.12634  -0.10248  -0.10690
  45        3PZ         0.01616   0.06330  -0.15859  -0.03219   0.10561
  46        4S         -1.21936   0.62415  -0.79474   3.57851  -0.88902
  47        4PX        -1.35995   0.48056   0.55280   2.32570   0.18055
  48        4PY         0.06184   0.24782   0.70878  -0.93180   0.37780
  49        4PZ         0.00660   0.06685  -0.54802   0.45881  -0.24968
  50        5D 0       -0.00916   0.02026  -0.01264   0.00900   0.01301
  51        5D+1       -0.00781   0.00114  -0.00107  -0.01171   0.00447
  52        5D-1        0.00217  -0.01172  -0.00958   0.00255   0.00952
  53        5D+2        0.02988   0.00207  -0.01708  -0.02421  -0.01852
  54        5D-2        0.00864   0.01726   0.00734   0.02289   0.00145
  55 4   H  1S          0.00726   0.01522   0.13221  -0.03048  -0.02291
  56        2S          0.03612   0.24513   1.96432  -0.91690   0.02475
  57        3S         -0.42508  -0.42210  -0.89943   0.40717   0.15741
  58        4PX        -0.02823  -0.01005   0.03380  -0.02452   0.03887
  59        4PY         0.01806   0.02437  -0.00198  -0.02705   0.01561
  60        4PZ        -0.00766   0.02299  -0.01208   0.00395  -0.01992
  61 5   H  1S         -0.01933  -0.15280   0.03742   0.00497   0.01371
  62        2S         -0.20220  -1.40640   0.39181   0.27544   0.09276
  63        3S          0.02483   1.52614  -0.19999  -0.00199  -0.17667
  64        4PX        -0.02057   0.01343   0.02684   0.03571   0.01208
  65        4PY        -0.00653  -0.00545   0.02261  -0.00509  -0.00304
  66        4PZ         0.00002  -0.00732  -0.02879   0.02581   0.00049
                          21        22        23        24        25
                           V         V         V         V         V
     Eigenvalues --     0.51399   0.56192   0.60521   0.65727   0.69598
   1 1   N  1S         -0.00413  -0.00854  -0.00624   0.02446  -0.03896
   2        2S         -0.00834  -0.01598  -0.01278   0.04710  -0.07458
   3        2PX        -0.03615  -0.01350  -0.03467  -0.00345   0.06977
   4        2PY        -0.02614  -0.11747  -0.00405  -0.04428  -0.11746
   5        2PZ        -0.10531   0.02043   0.06655  -0.02136   0.01566
   6        3S          0.06163   0.10434   0.09372  -0.28488   0.45245
   7        3PX        -0.06950  -0.03691  -0.10447  -0.20366   0.32132
   8        3PY        -0.08623  -0.48619  -0.00119  -0.13626  -0.42751
   9        3PZ        -0.42335   0.08645   0.25425  -0.07803   0.06002
  10        4S         -0.54401  -0.19095  -0.60913   0.70827  -0.43896
  11        4PX        -0.22150   0.33648   1.03397   0.16874  -0.34134
  12        4PY         0.04196   0.66653   0.12068  -0.03586   1.14667
  13        4PZ         0.39878  -0.14208  -0.54231   0.19624  -0.10653
  14        5D 0        0.00730   0.01213   0.01214  -0.00122   0.01155
  15        5D+1        0.00710   0.00530   0.06548   0.01122  -0.01041
  16        5D-1       -0.00970   0.00462   0.01610  -0.01504   0.00650
  17        5D+2       -0.00041   0.01450  -0.00927   0.00770  -0.00927
  18        5D-2       -0.00218  -0.01890  -0.00315   0.02584   0.03914
  19 2   N  1S         -0.00946  -0.00174  -0.00935   0.04221  -0.04084
  20        2S         -0.01611  -0.00322  -0.01733   0.08122  -0.08067
  21        2PX         0.01234   0.03135   0.00281  -0.09463   0.09636
  22        2PY        -0.00958  -0.15897   0.02823   0.08499   0.14487
  23        2PZ        -0.10524   0.02892   0.14272   0.03467  -0.01625
  24        3S          0.04632   0.00129   0.08502  -0.56212   0.60970
  25        3PX         0.06855   0.11991   0.04558  -0.32011   0.25445
  26        3PY        -0.03027  -0.56282   0.10599   0.26785   0.49287
  27        3PZ        -0.38780   0.10227   0.50266   0.12325  -0.05916
  28        4S          0.44555  -0.21700  -0.59754   0.30768  -0.59965
  29        4PX        -0.46287  -0.14373   0.04081   0.36087   0.04469
  30        4PY        -0.04849   0.67992  -0.11583  -0.38283  -1.08013
  31        4PZ         0.42956  -0.10433  -0.59651  -0.25055   0.13459
  32        5D 0        0.00189  -0.00108  -0.00041  -0.00256  -0.00850
  33        5D+1        0.03095  -0.00720  -0.03284  -0.00290   0.00284
  34        5D-1        0.00841  -0.00063  -0.00162  -0.00399  -0.00019
  35        5D+2       -0.00386  -0.01340   0.00084  -0.00629   0.02521
  36        5D-2        0.00352   0.04241  -0.00557  -0.00493  -0.00136
  37 3   N  1S         -0.00586   0.00644  -0.01115  -0.01433   0.00425
  38        2S         -0.01042   0.01239  -0.01913  -0.02628   0.00796
  39        2PX        -0.02144  -0.01137  -0.03136   0.04024  -0.03632
  40        2PY        -0.00285  -0.08194   0.03304  -0.16823  -0.03731
  41        2PZ        -0.16232   0.00601  -0.15219  -0.00441   0.02202
  42        3S          0.03322  -0.09442   0.03314   0.20565  -0.08865
  43        3PX        -0.04078   0.00017  -0.08639   0.11723  -0.09593
  44        3PY        -0.04657  -0.27994   0.08428  -0.57324  -0.12596
  45        3PZ        -0.56313   0.02356  -0.52190  -0.06377   0.08666
  46        4S          0.19384   0.37973   1.20854  -0.56287  -0.05598
  47        4PX        -0.10666   0.04480   0.45412  -0.31618   0.32296
  48        4PY         0.06749   0.21836  -0.52353   1.59321  -0.16822
  49        4PZ         0.75322   0.07927   1.19735  -0.11161  -0.11350
  50        5D 0       -0.01697  -0.00619  -0.00842   0.01343   0.00444
  51        5D+1       -0.03382   0.00126  -0.03341   0.00131   0.00841
  52        5D-1       -0.00226   0.00714  -0.00061  -0.00109   0.00327
  53        5D+2        0.01099   0.00257   0.01818  -0.00780  -0.00036
  54        5D-2       -0.00138  -0.02102   0.01412  -0.04167  -0.00189
  55 4   H  1S          0.01373  -0.02097   0.01056  -0.01789   0.00326
  56        2S         -0.08139  -0.25534  -0.46257   0.41089  -0.14730
  57        3S         -0.18261   0.51597  -0.12247   0.54123   0.34310
  58        4PX        -0.03694  -0.02983  -0.09960   0.06705  -0.03782
  59        4PY        -0.02217   0.01499  -0.01796   0.09939   0.01644
  60        4PZ         0.01281  -0.02006   0.03263  -0.02455  -0.01470
  61 5   H  1S          0.00245   0.02848  -0.01363   0.02477  -0.02026
  62        2S         -0.14114   0.09500  -0.14541  -0.33885   0.10635
  63        3S         -0.05327  -0.50553   0.21762  -0.48815  -0.07498
  64        4PX        -0.01457   0.00444  -0.02205  -0.04470   0.08424
  65        4PY         0.01846   0.02755  -0.01859   0.08169   0.01515
  66        4PZ         0.02021   0.02633   0.05761  -0.00119   0.02077
                          26        27        28        29        30
                           V         V         V         V         V
     Eigenvalues --     0.69910   0.73934   0.78370   0.88128   0.98410
   1 1   N  1S          0.02512  -0.02785  -0.04230  -0.01860  -0.00264
   2        2S          0.04930  -0.05602  -0.08343  -0.03589  -0.00903
   3        2PX        -0.05875   0.01838  -0.18749   0.14997  -0.23502
   4        2PY        -0.07771   0.09308  -0.02179   0.02180   0.01847
   5        2PZ         0.13675   0.12767  -0.03329  -0.02111  -0.02795
   6        3S         -0.34421   0.43079   0.66830   0.19629   0.17723
   7        3PX        -0.29676   0.01818  -0.57100  -0.10252  -0.47564
   8        3PY        -0.26882   0.34520  -0.10440   0.08146   0.12210
   9        3PZ         0.45371   0.44410  -0.11954  -0.12098  -0.08765
  10        4S          0.20091  -0.65636  -1.78579   0.56397  -0.40497
  11        4PX         1.97860   0.17707   1.55681   5.35557   6.94980
  12        4PY         0.90335  -1.22661   0.16231   0.16976  -0.24433
  13        4PZ        -1.10439  -1.11583   0.53466   0.62586   0.50458
  14        5D 0        0.00921  -0.01226  -0.00700   0.00622   0.00687
  15        5D+1       -0.01096  -0.01383  -0.00118   0.03106   0.00213
  16        5D-1        0.01978  -0.01342  -0.00959   0.00500   0.02182
  17        5D+2       -0.00348  -0.00115  -0.01611  -0.00920   0.00475
  18        5D-2       -0.01884   0.00083   0.01329  -0.11545  -0.00312
  19 2   N  1S          0.03202  -0.02297  -0.00944   0.02386  -0.05166
  20        2S          0.06321  -0.04651  -0.01872   0.04071  -0.10130
  21        2PX        -0.07311   0.06965  -0.08847   0.19457  -0.11249
  22        2PY         0.02888  -0.01686  -0.01453   0.06069  -0.00020
  23        2PZ        -0.11957  -0.08427   0.00402   0.01048  -0.00172
  24        3S         -0.49179   0.36466   0.05317  -0.18719   0.73080
  25        3PX        -0.14240   0.15870  -0.30902   0.60225  -0.06962
  26        3PY         0.11993  -0.10090  -0.03981   0.11649   0.00493
  27        3PZ        -0.41323  -0.29802   0.02787   0.05398   0.00932
  28        4S         -0.96092  -0.23386  -0.42279  -4.28447  -5.89969
  29        4PX         0.48547  -0.18480   0.23923   1.04109   2.17323
  30        4PY        -0.28057   0.58176   0.02372   0.59546   0.92379
  31        4PZ         0.98572   0.81649  -0.21559  -0.22259  -0.06673
  32        5D 0        0.01572  -0.02268  -0.00993  -0.02211   0.02704
  33        5D+1       -0.00124   0.00402  -0.00381  -0.01532  -0.01024
  34        5D-1        0.00480   0.00005  -0.00582  -0.00371  -0.00138
  35        5D+2       -0.02357   0.02099   0.01354   0.01171  -0.07598
  36        5D-2       -0.00736   0.01728  -0.00230   0.06823   0.01563
  37 3   N  1S          0.00367  -0.02518  -0.04276  -0.04367   0.07550
  38        2S          0.00786  -0.04783  -0.08832  -0.08290   0.15129
  39        2PX         0.03585  -0.04987  -0.19728   0.11908  -0.06074
  40        2PY         0.05804  -0.10058   0.03836  -0.02566  -0.01753
  41        2PZ        -0.01786  -0.02322   0.04530   0.04055  -0.00376
  42        3S         -0.10353   0.33119   0.79826   0.51076  -1.34116
  43        3PX         0.05349  -0.08550  -0.43312   0.40648  -0.02221
  44        3PY         0.18716  -0.34486   0.19196   0.02105  -0.19929
  45        3PZ        -0.01735  -0.14051   0.10958   0.14249   0.15050
  46        4S          1.58974  -0.33678  -0.42315   3.07568   7.41332
  47        4PX         0.44483   0.43528   1.78695   1.32750   2.54635
  48        4PY        -1.12650   1.47127  -0.34443  -0.71082  -0.38708
  49        4PZ         0.57802   0.37585  -0.64444  -0.09927   0.37454
  50        5D 0        0.00087  -0.00374  -0.06599  -0.01856   0.00129
  51        5D+1       -0.01615   0.00649   0.03425  -0.01653  -0.03168
  52        5D-1        0.00814  -0.00655   0.01216   0.03829   0.00425
  53        5D+2       -0.01562   0.03573   0.07095   0.00636   0.06602
  54        5D-2        0.03708  -0.03659  -0.04545   0.08966   0.06898
  55 4   H  1S          0.04188  -0.01598  -0.01593   0.06417   0.07047
  56        2S         -0.45466   0.40534   0.57200  -0.22277  -0.77159
  57        3S         -0.16081   0.51050   0.58527   0.14942  -0.08507
  58        4PX        -0.15791   0.05073   0.01117  -0.14332  -0.26753
  59        4PY        -0.04966   0.12279   0.10415   0.01552  -0.06897
  60        4PZ        -0.00167  -0.01513  -0.14736  -0.12439   0.12333
  61 5   H  1S          0.00374   0.00628  -0.02164   0.00834   0.03170
  62        2S          0.23738  -0.45009   0.51073   0.27184  -0.41944
  63        3S          0.06660  -0.03251   0.37536   0.07058  -0.03382
  64        4PX         0.02704  -0.09399   0.05498   0.00582   0.04171
  65        4PY        -0.02847   0.03023  -0.08019   0.02343   0.12293
  66        4PZ         0.05869  -0.01547  -0.09519   0.06051   0.18001
                          31        32        33        34        35
                           V         V         V         V         V
     Eigenvalues --     1.14542   1.26197   1.38390   1.46205   1.51867
   1 1   N  1S          0.07920  -0.01856   0.00568  -0.00404  -0.00007
   2        2S          0.15451  -0.03598   0.01090  -0.00816   0.00038
   3        2PX        -0.09196   0.01719  -0.06785  -0.02949  -0.00158
   4        2PY        -0.04403   0.03344  -0.02586   0.00203   0.05123
   5        2PZ         0.00002  -0.00052  -0.00544   0.00383   0.01039
   6        3S         -1.36842   0.34309  -0.14673   0.06563  -0.03771
   7        3PX         0.00955   0.06759  -0.29615  -0.10144  -0.09488
   8        3PY        -0.02717   0.09342  -0.08463  -0.00580   0.01958
   9        3PZ        -0.00055   0.06930   0.05796  -0.00710  -0.00764
  10        4S          7.00333  -1.82253   2.01693   0.28579   0.82120
  11        4PX         1.07606  -2.19665   6.17268   1.61269   3.09704
  12        4PY         0.71369  -0.70799   0.89727  -0.05230   0.33010
  13        4PZ        -0.02088  -0.53590  -0.11946   0.12814   0.04226
  14        5D 0       -0.13043  -0.07762   0.00414  -0.06075   0.04693
  15        5D+1        0.02520  -0.15963  -0.26290   0.10656   0.19626
  16        5D-1        0.00694   0.06271   0.01199  -0.05885   0.15453
  17        5D+2        0.17493  -0.09250   0.07233  -0.02503   0.01761
  18        5D-2        0.03534  -0.04588  -0.01164   0.03902   0.22831
  19 2   N  1S         -0.06832   0.01628  -0.01813  -0.00694   0.00007
  20        2S         -0.13194   0.03257  -0.03808  -0.01402   0.00004
  21        2PX        -0.11742   0.00604   0.01463   0.00036   0.04317
  22        2PY        -0.03147   0.00584   0.02395   0.01283  -0.02510
  23        2PZ        -0.00186   0.03241   0.04160  -0.01916  -0.03154
  24        3S          1.12613  -0.30598   0.38259   0.13500   0.05449
  25        3PX         0.05642  -0.09136   0.18348   0.03602   0.17964
  26        3PY        -0.00067  -0.02387   0.06846   0.02180  -0.02047
  27        3PZ         0.00310   0.03897   0.06697  -0.02733  -0.04961
  28        4S         -4.90209   2.88980  -6.10119  -1.53302  -2.87731
  29        4PX         2.34238  -1.19821   2.31952   0.58709   1.03737
  30        4PY         0.34053  -0.11774   0.50210   0.16932   0.29535
  31        4PZ         0.06593   0.13976   0.17695  -0.00237   0.04136
  32        5D 0        0.08122  -0.04126   0.03697  -0.03429   0.02420
  33        5D+1       -0.00841   0.09406   0.14296  -0.05696  -0.14074
  34        5D-1       -0.00027   0.04671   0.05499  -0.04449   0.02256
  35        5D+2       -0.11724   0.00222  -0.04699  -0.01832   0.06006
  36        5D-2       -0.06293   0.03205   0.02956   0.00464  -0.09882
  37 3   N  1S         -0.02934   0.01894   0.00552   0.01398   0.01284
  38        2S         -0.05960   0.03785   0.01349   0.02447   0.02258
  39        2PX         0.02407  -0.01105  -0.00560   0.00851   0.06212
  40        2PY        -0.01467  -0.02978   0.01937  -0.02863  -0.04263
  41        2PZ         0.01699  -0.02714  -0.04655   0.01138   0.01278
  42        3S          0.67120  -0.32617  -0.24383  -0.13152  -0.15897
  43        3PX        -0.03772   0.08276   0.04779   0.00421   0.17424
  44        3PY         0.06372  -0.11322   0.03406  -0.18623  -0.10097
  45        3PZ        -0.04735  -0.09742  -0.06917   0.05978  -0.02725
  46        4S         -2.64796  -0.36307   4.49872   0.98414   2.17939
  47        4PX        -1.03589  -0.81667   1.35544   0.57660   0.67740
  48        4PY         0.02535   0.70271  -1.05456   0.53309  -0.73617
  49        4PZ        -0.13332   0.60130   0.71589  -0.09125   0.36465
  50        5D 0       -0.05027  -0.16928   0.01040  -0.09108  -0.11027
  51        5D+1        0.00212   0.21193   0.24204  -0.10572  -0.12871
  52        5D-1        0.04519   0.07422  -0.16802   0.03368   0.06744
  53        5D+2       -0.05281  -0.11544  -0.04189  -0.04132  -0.11893
  54        5D-2        0.05875   0.09719  -0.06588  -0.12064  -0.23303
  55 4   H  1S         -0.01457  -0.03911   0.00213  -0.00867  -0.05711
  56        2S          0.45473  -0.16725  -0.74762   0.32670  -0.33540
  57        3S         -0.04630  -0.07448   0.03185  -0.00775  -0.14415
  58        4PX        -0.08423  -0.01975   0.38658   0.30009  -0.14393
  59        4PY         0.03284  -0.33762  -0.27044  -0.44123   0.06635
  60        4PZ        -0.29716  -0.52708   0.19880  -0.23275   0.19337
  61 5   H  1S         -0.04490   0.00779   0.02029   0.14173   0.23938
  62        2S          0.31931  -0.58854  -0.04283  -0.48987  -0.31832
  63        3S         -0.06038   0.03383   0.05593   0.25609   0.42175
  64        4PX         0.07030   0.42690  -0.27681  -0.26930   0.41648
  65        4PY        -0.00363   0.14810   0.09603  -0.66995  -0.22898
  66        4PZ        -0.05031  -0.08765  -0.47004   0.30715  -0.58199
                          36        37        38        39        40
                           V         V         V         V         V
     Eigenvalues --     1.61120   1.68077   1.71230   1.73729   1.86224
   1 1   N  1S          0.00432   0.00303   0.00131   0.00299  -0.00943
   2        2S          0.00979   0.00537   0.00245   0.00495  -0.02028
   3        2PX        -0.00828   0.05641  -0.01026   0.05853   0.01382
   4        2PY         0.03161   0.03128  -0.03386   0.00530  -0.03501
   5        2PZ         0.00443  -0.03377  -0.02222  -0.00064   0.02448
   6        3S         -0.20180  -0.00330  -0.05755   0.01765   0.21431
   7        3PX        -0.13362   0.10832  -0.05825   0.05103  -0.07246
   8        3PY         0.00503   0.05440  -0.04441  -0.01159  -0.01289
   9        3PZ         0.00600  -0.03787  -0.03055  -0.00096  -0.00169
  10        4S          2.82060  -0.99374   0.90211  -1.10605  -1.14220
  11        4PX         0.41562  -1.17079   0.29451   1.43426   1.69730
  12        4PY         0.16922  -0.41596   0.16607  -0.07023  -0.19940
  13        4PZ         0.12060   0.23586   0.03898   0.30460   0.28419
  14        5D 0        0.02750   0.19512  -0.46771  -0.32368   0.04431
  15        5D+1       -0.16651  -0.20286   0.05031  -0.18904  -0.23049
  16        5D-1       -0.13062   0.43082   0.42474  -0.30726   0.07126
  17        5D+2        0.08363   0.17416  -0.27728  -0.18750  -0.05227
  18        5D-2        0.25917   0.00762  -0.01070   0.12018   0.29992
  19 2   N  1S         -0.00314   0.00577  -0.00344   0.00528   0.00173
  20        2S         -0.00574   0.01283  -0.00717   0.01107   0.00374
  21        2PX         0.03144  -0.00452   0.00606   0.02062   0.01977
  22        2PY        -0.04459   0.00993  -0.02028  -0.01497  -0.05025
  23        2PZ         0.02530   0.02017  -0.02123   0.04660   0.04435
  24        3S          0.11057  -0.11983   0.07497  -0.08565  -0.03455
  25        3PX         0.12990  -0.00723   0.02169   0.07816   0.04631
  26        3PY        -0.05014   0.01713  -0.02613  -0.01498  -0.06664
  27        3PZ         0.04436   0.03153  -0.02842   0.06710   0.06069
  28        4S         -1.52454   1.40169  -0.65298  -0.68274  -0.86145
  29        4PX         0.64584  -0.57174   0.28526   0.16783   0.22102
  30        4PY         0.17856  -0.08177   0.04703   0.11952   0.26789
  31        4PZ        -0.01482  -0.12064   0.01254  -0.12097  -0.13768
  32        5D 0        0.07410   0.12407  -0.36002  -0.28856   0.10731
  33        5D+1        0.13673   0.00053  -0.16615   0.27033   0.18050
  34        5D-1       -0.04432   0.32228   0.30156  -0.23185   0.28775
  35        5D+2        0.08680   0.07962  -0.15129  -0.09048   0.18616
  36        5D-2       -0.14963   0.07445  -0.19659  -0.16864  -0.27570
  37 3   N  1S         -0.03445  -0.01769  -0.01202   0.00063   0.01406
  38        2S         -0.07254  -0.03644  -0.02476   0.00478   0.02618
  39        2PX        -0.00303   0.00135  -0.01459   0.04634   0.09672
  40        2PY         0.00743  -0.04790   0.01766  -0.04384   0.09878
  41        2PZ        -0.03400   0.01321  -0.00715   0.01007  -0.06626
  42        3S          0.71844   0.25648   0.21271  -0.16624  -0.22576
  43        3PX         0.08923  -0.17664  -0.01287  -0.00201   0.13220
  44        3PY        -0.01317  -0.19920  -0.01152  -0.03704   0.04896
  45        3PZ         0.05644   0.11933   0.03085   0.02502  -0.01752
  46        4S         -1.81555  -0.88663  -0.26848   1.57405   1.90938
  47        4PX        -1.02670   0.48133  -0.31742   1.38150   1.03240
  48        4PY         0.25701   0.62135   0.00195  -0.21852  -0.12002
  49        4PZ        -0.60155  -0.42873  -0.15498  -0.09926   0.06851
  50        5D 0        0.14209   0.15707  -0.02645   0.01969  -0.02933
  51        5D+1        0.15681   0.13029   0.06205   0.06996  -0.09863
  52        5D-1        0.00879   0.19821   0.02912   0.10657  -0.28546
  53        5D+2       -0.05127   0.10652  -0.05489   0.04974  -0.13863
  54        5D-2       -0.17095  -0.11958   0.03991  -0.12489  -0.00316
  55 4   H  1S         -0.19074  -0.32313   0.06004  -0.38079   0.65432
  56        2S          0.80799   0.99655  -0.05980   0.61892  -0.95284
  57        3S         -0.22248  -0.20608   0.05394  -0.23684   0.49148
  58        4PX         0.22428  -0.46780   0.16867  -0.49965  -0.20325
  59        4PY        -0.08957  -0.19536  -0.02045   0.14896   0.28411
  60        4PZ         0.30828   0.01614   0.25029  -0.00407  -0.28124
  61 5   H  1S          0.06045  -0.00366  -0.06442   0.06708   0.09264
  62        2S          0.04539   0.04204   0.10915   0.04649  -0.13546
  63        3S          0.03638   0.04683  -0.13564   0.17599   0.02380
  64        4PX         0.52871  -0.25831  -0.00140  -0.24997  -0.18870
  65        4PY         0.03820  -0.17879   0.11185  -0.18520  -0.15196
  66        4PZ         0.55223   0.05359   0.16019  -0.16022   0.08284
                          41        42        43        44        45
                           V         V         V         V         V
     Eigenvalues --     1.93296   2.08700   2.11381   2.24185   2.32525
   1 1   N  1S         -0.00408   0.00383   0.00181   0.01265   0.00244
   2        2S         -0.00876   0.00937   0.00352   0.03134   0.00709
   3        2PX         0.02244   0.00224  -0.01023   0.06515  -0.02205
   4        2PY        -0.02356   0.05483  -0.03635   0.12599   0.06086
   5        2PZ        -0.04793   0.03511   0.00757  -0.07781   0.15826
   6        3S          0.14304  -0.07469   0.00408  -0.28196  -0.08120
   7        3PX        -0.08153   0.02027  -0.00354   0.06919   0.00298
   8        3PY        -0.02302  -0.01157  -0.03424  -0.03317  -0.01302
   9        3PZ        -0.01114   0.02729   0.00783  -0.00601   0.00290
  10        4S         -0.73648   0.27486  -0.05341  -0.17932   0.49030
  11        4PX         3.08368   0.87310   0.74914   0.68214   0.63886
  12        4PY        -0.26371   0.16076   0.05117   0.35869   0.26740
  13        4PZ        -0.21832   0.03067   0.13131   0.02038   0.45350
  14        5D 0        0.05382   0.13082  -0.39034  -0.28118  -0.08028
  15        5D+1        0.21115   0.05405   0.01660  -0.07706   0.02569
  16        5D-1        0.03686  -0.41368  -0.21223   0.18813   0.28099
  17        5D+2       -0.09076   0.11247  -0.29857   0.17043   0.01083
  18        5D-2        0.35651   0.06325  -0.05930   0.09902   0.06769
  19 2   N  1S          0.00342   0.00265  -0.00204   0.01209   0.00363
  20        2S          0.00645   0.00583  -0.00527   0.03008   0.00838
  21        2PX         0.04506   0.01509   0.00842  -0.00830   0.01523
  22        2PY        -0.04332   0.01379   0.00644   0.01964  -0.00603
  23        2PZ        -0.04248  -0.00233   0.00104  -0.00234   0.00869
  24        3S         -0.04019  -0.03257   0.04409  -0.24823  -0.05718
  25        3PX         0.10185   0.06800  -0.02351   0.23320   0.07796
  26        3PY        -0.06343   0.02347  -0.01551   0.07082   0.01861
  27        3PZ        -0.05609   0.00881   0.00645   0.00237   0.02609
  28        4S         -2.04567  -0.79387  -0.59694  -0.36137  -0.67733
  29        4PX         0.63034   0.28542   0.23281   0.02431   0.25596
  30        4PY         0.45921   0.02212   0.07314  -0.18059  -0.01938
  31        4PZ         0.18622   0.00155  -0.03240   0.04488  -0.26259
  32        5D 0        0.08109  -0.27315   0.62099   0.00291   0.02750
  33        5D+1       -0.26298  -0.05374  -0.03118  -0.17015   0.55725
  34        5D-1       -0.20016   0.66536   0.29438  -0.18564  -0.05531
  35        5D+2        0.20188  -0.17449   0.34760   0.06754  -0.05439
  36        5D-2       -0.26306   0.05525   0.06450   0.42359   0.19471
  37 3   N  1S          0.00051   0.01151   0.00426   0.01942   0.00394
  38        2S          0.01090   0.03110   0.01299   0.04556   0.01003
  39        2PX        -0.01773  -0.01432  -0.01935   0.04774  -0.02435
  40        2PY         0.10350   0.00519  -0.06867   0.05389   0.07713
  41        2PZ         0.10496   0.06744   0.02477  -0.02217   0.04092
  42        3S         -0.40787  -0.31988  -0.15659  -0.40684  -0.08321
  43        3PX         0.13973   0.14853   0.10632  -0.06022   0.07677
  44        3PY        -0.00562   0.22952   0.10479   0.24066  -0.12731
  45        3PZ        -0.02005  -0.12770  -0.06896  -0.09245  -0.00419
[...]
     4   1    -0.08   0.01  -0.14    -0.05  -0.35  -0.48    -0.26  -0.11  -0.70
     5   1     0.52  -0.74  -0.33    -0.10  -0.65  -0.26    -0.20   0.37   0.26
                     4                      5                      6
                     A                      A                      A
 Frequencies --   877.9316              1115.1179              1339.7777
 Red. masses --     1.6773                 1.6330                 1.6286
 Frc consts  --     0.7617                 1.1964                 1.7224
 IR Inten    --   125.5065                50.0543                 3.3913
  Atom  AN      X      Y      Z        X      Y      Z        X      Y      Z
     1   7     0.03   0.01   0.09    -0.09   0.07   0.01     0.04   0.01  -0.01
     2   7     0.05  -0.01  -0.02    -0.10  -0.00  -0.00     0.14   0.03   0.01
     3   7    -0.11  -0.00  -0.16     0.13  -0.08  -0.02    -0.14  -0.08   0.01
     4   1     0.31   0.20   0.60    -0.17   0.15   0.03    -0.80   0.20  -0.18
     5   1     0.13  -0.19   0.63     0.93  -0.04   0.19     0.25   0.40   0.13
                     7                      8                      9
                     A                      A                      A
 Frequencies --  1550.3452              2172.9886              3537.1711
 Red. masses --     1.1202                10.6706                 1.0756
 Frc consts  --     1.5864                29.6860                 7.9291
 IR Inten    --    48.3255               189.7181                55.6349
  Atom  AN      X      Y      Z        X      Y      Z        X      Y      Z
     1   7    -0.01  -0.00  -0.01     0.66   0.14   0.01     0.00  -0.00  -0.00
     2   7    -0.01  -0.00  -0.00    -0.50  -0.12  -0.01    -0.00  -0.00  -0.00
     3   7     0.09   0.00  -0.01    -0.15  -0.02   0.02     0.04   0.05  -0.03
     4   1    -0.52   0.50   0.15    -0.40   0.07  -0.15    -0.47  -0.74   0.47
     5   1    -0.44  -0.49   0.14     0.18  -0.16  -0.11    -0.01  -0.01  -0.01

 -------------------
 - Thermochemistry -
 -------------------
 Temperature   298.150 Kelvin.  Pressure   1.00000 Atm.
 Atom     1 has atomic number  7 and mass  14.00307
 Atom     2 has atomic number  7 and mass  14.00307
 Atom     3 has atomic number  7 and mass  14.00307
 Atom     4 has atomic number  1 and mass   1.00783
 Atom     5 has atomic number  1 and mass   1.00783
 Molecular mass:    44.02487 amu.
 Principal axes and moments of inertia in atomic units:
                           1         2         3
     Eigenvalues --     8.70580 163.92610 170.13528
           X            0.99964  -0.01404  -0.02293
           Y            0.01405   0.99990   0.00018
           Z            0.02292  -0.00050   0.99974
 This molecule is an asymmetric top.
 Rotational symmetry number  1.
 Rotational temperatures (Kelvin)      9.94898     0.52837     0.50909
 Rotational constants (GHZ):         207.30338    11.00948    10.60768
    1 imaginary frequencies ignored.
 Zero-point vibrational energy      68613.9 (Joules/Mol)
                                   16.39912 (Kcal/Mol)
 Warning -- explicit consideration of   2 degrees of freedom as
           vibrations may cause significant error
 Vibrational temperatures:    552.93   710.34  1263.15  1604.40  1927.64
          (Kelvin)           2230.60  3126.44  5089.19
 
 Zero-point correction=                           0.026134 (Hartree/Particle)
 Thermal correction to Energy=                    0.029616
 Thermal correction to Enthalpy=                  0.030560
 Thermal correction to Gibbs Free Energy=         0.001713
 Sum of electronic and zero-point Energies=           -165.221783
 Sum of electronic and thermal Energies=              -165.218301
 Sum of electronic and thermal Enthalpies=            -165.217357
 Sum of electronic and thermal Free Energies=         -165.246204
 
                     E (Thermal)             CV                S
                      KCal/Mol        Cal/Mol-Kelvin    Cal/Mol-Kelvin
 Total                   18.584              9.726             60.714
 Electronic               0.000              0.000              1.377
 Translational            0.889              2.981             37.273
 Rotational               0.889              2.981             20.124
 Vibrational             16.807              3.764              1.941
 Vibration     1          0.753              1.504              1.022
 Vibration     2          0.849              1.264              0.674
                       Q            Log10(Q)             Ln(Q)
 Total Bot       0.162980D+00         -0.787865         -1.814126
 Total V=0       0.170907D+12         11.232760         25.864386
 Vib (Bot)       0.127242D-11        -11.895369        -27.390100
 Vib (Bot)    1  0.469052D+00         -0.328779         -0.757042
 Vib (Bot)    2  0.334744D+00         -0.475288         -1.094390
 Vib (V=0)       0.133431D+01          0.125256          0.288412
 Vib (V=0)    1  0.118557D+01          0.073928          0.170226
 Vib (V=0)    2  0.110171D+01          0.042067          0.096862
 Electronic      0.200000D+01          0.301030          0.693147
 Translational   0.114816D+08          7.060002         16.256256
 Rotational      0.557792D+04          3.746472          8.626570
 
                                                  reverse IRC, from TS reverse1 f
 req
                                                             IR Spectrum
 
     3                                                2                      1      1       1                                        
     5                                                1                      5      3       1        8             4   3             
     3                                                7                      5      4       1        7             9   8             
     7                                                3                      0      0       5        8             4   4             
 
     X                                                X                      X      X       X        X             X   X             
     X                                                X                      X              X        X             X   X             
     X                                                X                      X              X        X             X   X             
     X                                                X                      X              X        X             X   X             
     X                                                X                      X              X        X             X   X             
     X                                                X                                              X             X   X             
                                                      X                                              X             X   X             
                                                      X                                              X             X   X             
                                                      X                                              X                 X             
                                                      X                                              X                 X             
                                                      X                                              X                 X             
                                                      X                                              X                 X             
                                                      X                                              X                 X             
                                                      X                                                                X             
                                                      X                                                                X             
                                                      X                                                                X             
                                                      X                                                                X             
                                                      X                                                                X             
                                                      X                                                                X             
                                                                                                                       X             
 
 ***** Axes restored to original set *****
 -------------------------------------------------------------------
 Center     Atomic                   Forces (Hartrees/Bohr)
 Number     Number              X              Y              Z
 -------------------------------------------------------------------
      1        7          -0.039176690   -0.032040685   -0.009189103
      2        7           0.017870935    0.017068396    0.029161450
      3        7           0.045068696    0.058687639   -0.034903547
      4        1           0.003390817   -0.001805276   -0.001932451
      5        1          -0.027153758   -0.041910074    0.016863651
 -------------------------------------------------------------------
 Cartesian Forces:  Max     0.058687639 RMS     0.030107903
 Z-matrix is all fixed cartesians, so copy forces.
 Force constants in Cartesian coordinates: 
                1             2             3             4             5 
      1  0.202749D-01
      2 -0.216136D-01  0.359026D-01
      3 -0.138776D+00  0.698601D-01  0.153732D+01
      4  0.138524D-01  0.211236D-01  0.462803D-01 -0.151337D-02
      5  0.274028D-01 -0.944641D-02 -0.959107D-01 -0.124489D-01  0.229623D-02
      6  0.752334D-01 -0.810947D-01 -0.103134D+01 -0.906643D-01  0.747364D-01
      7 -0.186847D-01  0.283097D-01  0.645791D-01 -0.176329D-01 -0.299848D-01
      8  0.265030D-01 -0.109495D-02  0.604440D-01 -0.222548D-01 -0.104567D-01
      9  0.430635D-01 -0.290903D-01 -0.448716D+00  0.528131D-01  0.299528D-01
     10  0.101653D-01  0.228619D-02  0.314088D-01  0.156128D-03  0.178168D-03
     11  0.117165D-01 -0.142117D-01 -0.801052D-02 -0.386272D-02  0.859732D-02
     12 -0.119330D-01  0.665242D-02 -0.711541D-01 -0.291295D-02 -0.201767D-02
     13 -0.256078D-01 -0.301060D-01 -0.349165D-02  0.513778D-02  0.148527D-01
     14 -0.440088D-01 -0.111496D-01 -0.263829D-01  0.174428D-01  0.900958D-02
     15  0.324125D-01  0.336725D-01  0.138904D-01 -0.551609D-02 -0.676083D-02
                6             7             8             9            10 
      6  0.106714D+01
      7 -0.325922D-01  0.313322D+00
      8 -0.660602D-01 -0.135206D-01  0.199648D-01
      9 -0.184621D-01  0.183852D+00  0.433615D-01  0.690295D+00
     10  0.349257D-02 -0.276284D+00 -0.369615D-01 -0.218049D+00  0.273299D+00
     11  0.513294D-02 -0.203338D-01 -0.144344D-01  0.159066D-01  0.298192D-01
     12  0.992878D-02 -0.179306D+00 -0.472883D-02 -0.179641D+00  0.189892D+00
     13  0.445304D-01 -0.720174D-03  0.462339D-01 -0.616786D-01 -0.733583D-02
     14  0.672856D-01  0.355296D-01  0.602130D-02 -0.601306D-01  0.467795D-02
     15 -0.272709D-01 -0.365326D-01 -0.330165D-01 -0.434763D-01 -0.674378D-02
               11            12            13            14            15 
     11  0.252315D-01
     12  0.543285D-03  0.234194D+00
     13 -0.173391D-01  0.425984D-02  0.285260D-01
     14 -0.518275D-02 -0.449212D-03 -0.136415D-01  0.130147D-02
     15 -0.135723D-01  0.667215D-02  0.163800D-01  0.196771D-01  0.501847D-01
 Leave Link  716 at Fri Apr 25 17:10:01 2014, MaxMem=   65536000 cpu:       0.2
 (Enter /apps/gaussian/g09/l103.exe)

 GradGradGradGradGradGradGradGradGradGradGradGradGradGradGradGradGradGrad
 Berny optimization.
 Search for a local minimum.
 Step number   1 out of a maximum of    2
 All quantities printed in internal units (Hartrees-Bohrs-Radians)
 Second derivative matrix not updated -- analytic derivatives used.
 The second derivative matrix:
                          X1        Y1        Z1        X2        Y2
           X1           0.02027
           Y1          -0.02161   0.03590
           Z1          -0.13878   0.06986   1.53732
           X2           0.01385   0.02112   0.04628  -0.00151
           Y2           0.02740  -0.00945  -0.09591  -0.01245   0.00230
           Z2           0.07523  -0.08109  -1.03134  -0.09066   0.07474
           X3          -0.01868   0.02831   0.06458  -0.01763  -0.02998
           Y3           0.02650  -0.00109   0.06044  -0.02225  -0.01046
           Z3           0.04306  -0.02909  -0.44872   0.05281   0.02995
           X4           0.01017   0.00229   0.03141   0.00016   0.00018
           Y4           0.01172  -0.01421  -0.00801  -0.00386   0.00860
           Z4          -0.01193   0.00665  -0.07115  -0.00291  -0.00202
           X5          -0.02561  -0.03011  -0.00349   0.00514   0.01485
           Y5          -0.04401  -0.01115  -0.02638   0.01744   0.00901
           Z5           0.03241   0.03367   0.01389  -0.00552  -0.00676
                          Z2        X3        Y3        Z3        X4
           Z2           1.06714
           X3          -0.03259   0.31332
           Y3          -0.06606  -0.01352   0.01996
           Z3          -0.01846   0.18385   0.04336   0.69030
           X4           0.00349  -0.27628  -0.03696  -0.21805   0.27330
           Y4           0.00513  -0.02033  -0.01443   0.01591   0.02982
           Z4           0.00993  -0.17931  -0.00473  -0.17964   0.18989
           X5           0.04453  -0.00072   0.04623  -0.06168  -0.00734
           Y5           0.06729   0.03553   0.00602  -0.06013   0.00468
           Z5          -0.02727  -0.03653  -0.03302  -0.04348  -0.00674
                          Y4        Z4        X5        Y5        Z5
           Y4           0.02523
           Z4           0.00054   0.23419
           X5          -0.01734   0.00426   0.02853
           Y5          -0.00518  -0.00045  -0.01364   0.00130
           Z5          -0.01357   0.00667   0.01638   0.01968   0.05018
     Eigenvalues ---   -0.14257   0.02167   0.03757   0.09178   0.09968
     Eigenvalues ---    0.12896   0.49481   0.98140   2.45803
 Eigenvalue     1 is  -1.43D-01 should be greater than     0.000000 Eigenvector:
                          Y5        X1        X5        Z5        Y3
   1                    0.47619   0.44069   0.32123  -0.31687  -0.30672
                          Y1        X2        X3        Y2        X4
   1                    0.28714  -0.26576  -0.23200  -0.17069  -0.17025
 Quadratic step=8.617D-01 exceeds max=3.000D-01 adjusted using Lamda=-2.237D-01.
 Angle between NR and scaled steps=  17.91 degrees.
 Angle between quadratic step and forces=  16.98 degrees.
 Linear search not attempted -- first point.
 TrRot=  0.009797  0.015081 -0.008064  1.093516 -0.004688 -1.083229
 Variable       Old X    -DE/DX   Delta X   Delta X   Delta X     New X
                                 (Linear)    (Quad)   (Total)
    X1       -0.24093  -0.03918   0.00000  -0.11207  -0.09993  -0.34086
    Y1       -0.15675  -0.03204   0.00000  -0.10402  -0.09324  -0.24999
    Z1        0.16886  -0.00919   0.00000  -0.00248  -0.01241   0.15645
    X2       -0.42644   0.01787   0.00000   0.04626   0.05072  -0.37572
    Y2       -0.02357   0.01707   0.00000   0.04783   0.04912   0.02555
    Z2        2.32963   0.02916   0.00000   0.04259   0.03377   2.36340
    X3        0.59050   0.04507   0.00000   0.09256   0.10518   0.69568
    Y3        0.04499   0.05869   0.00000   0.12186   0.15281   0.19780
    Z3       -2.06673  -0.03490   0.00000  -0.05919  -0.06504  -2.13177
    X4       -0.86577   0.00339   0.00000   0.00744   0.02489  -0.84088
    Y4       -0.03555  -0.00181   0.00000  -0.01351   0.00648  -0.02907
    Z4       -3.31375  -0.00193   0.00000   0.01587   0.00575  -3.30799
    X5        1.93338  -0.02715   0.00000  -0.07820  -0.08085   1.85252
    Y5        1.91509  -0.04191   0.00000  -0.16025  -0.11517   1.79992
    Z5       -2.68502   0.01686   0.00000   0.03462   0.03792  -2.64710
         Item               Value     Threshold  Converged?
 Maximum Force            0.058688     0.000450     NO 
 RMS     Force            0.030108     0.000300     NO 
 Maximum Displacement     0.152809     0.001800     NO 
 RMS     Displacement     0.075515     0.001200     NO 
 Predicted change in Energy=-3.795482D-02
 GradGradGradGradGradGradGradGradGradGradGradGradGradGradGradGradGradGrad

 Leave Link  103 at Fri Apr 25 17:10:01 2014, MaxMem=   65536000 cpu:       0.1
 (Enter /apps/gaussian/g09/l9999.exe)

 Test job not archived.
 1\1\GINC-ROMEO164\Freq\UM06\6-311G(d,p)\H2N3(2)\ROOT\25-Apr-2014\0\\#P
  M06 6-311G** FREQ # GFINPUT IOP(6/7=3) POP=FULL\\reverse IRC, from TS
  reverse1 freq\\0,2\N,-0.127496,-0.082947,0.089356\N,-0.22566,-0.01247
 3,1.232787\N,0.312477,0.023806,-1.093666\H,-0.458146,-0.018813,-1.7535
 59\H,1.023098,1.013424,-1.420852\\Version=AM64L-G09RevA.02\State=2-A\H
 F=-165.2479167\S2=0.756382\S2-1=0.\S2A=0.750025\RMSD=5.720e-09\RMSF=3.
 011e-02\ZeroPoint=0.0261337\Thermal=0.0296159\Dipole=-0.1565867,0.2644
 936,-1.1307301\DipoleDeriv=-0.3415603,-0.4618047,-0.0331964,-0.223953,
 -0.1590829,0.013771,-0.6713681,-0.3476078,1.4230391,-0.0945031,0.10644
 8,-0.0515001,0.1045239,-0.0916526,-0.076963,0.8431659,0.7331386,-1.223
 571,0.5034219,0.7704993,-0.3340145,0.8171945,0.454338,-0.8579565,-0.42
 00256,-0.595621,-0.2177522,0.1698069,-0.046284,-0.0320515,-0.0754162,0
 .2535381,0.159452,0.052695,0.0378262,0.278734,-0.2371654,-0.3688586,0.
 4507625,-0.6223493,-0.4571407,0.7616965,0.1955328,0.172264,-0.2604499\
 Polar=21.7033826,9.4024824,20.137785,-12.7689953,-10.0742675,46.283505
 9\PG=C01 [X(H2N3)]\NImag=1\\0.02027485,-0.02161357,0.03590264,-0.13877
 648,0.06986007,1.53731504,0.01385236,0.02112363,0.04628026,-0.00151337
 ,0.02740282,-0.00944641,-0.09591070,-0.01244887,0.00229623,0.07523343,
 -0.08109471,-1.03133501,-0.09066429,0.07473641,1.06713923,-0.01868474,
 0.02830972,0.06457906,-0.01763290,-0.02998484,-0.03259216,0.31332214,0
 .02650303,-0.00109495,0.06044404,-0.02225480,-0.01045672,-0.06606024,-
 0.01352064,0.01996480,0.04306352,-0.02909032,-0.44871633,0.05281306,0.
 02995278,-0.01846208,0.18385153,0.04336152,0.69029527,0.01016531,0.002
 28619,0.03140881,0.00015613,0.00017817,0.00349257,-0.27628433,-0.03696
 147,-0.21804948,0.27329873,0.01171648,-0.01421168,-0.00801052,-0.00386
 272,0.00859732,0.00513294,-0.02033383,-0.01443444,0.01590658,0.0298191
 6,0.02523154,-0.01193297,0.00665242,-0.07115407,-0.00291295,-0.0020176
 7,0.00992878,-0.17930581,-0.00472883,-0.17964058,0.18989188,0.00054328
 ,0.23419372,-0.02560778,-0.03010596,-0.00349165,0.00513778,0.01485272,
 0.04453044,-0.00072017,0.04623387,-0.06167863,-0.00733583,-0.01733909,
 0.00425984,0.02852601,-0.04400876,-0.01114960,-0.02638290,0.01744276,0
 .00900958,0.06728560,0.03552960,0.00602130,-0.06013057,0.00467795,-0.0
 0518275,-0.00044921,-0.01364155,0.00130147,0.03241249,0.03367253,0.013
 89037,-0.00551609,-0.00676083,-0.02727092,-0.03653263,-0.03301650,-0.0
 4347629,-0.00674378,-0.01357229,0.00667215,0.01638000,0.01967708,0.050
 18469\\0.03917669,0.03204069,0.00918910,-0.01787094,-0.01706840,-0.029
 16145,-0.04506870,-0.05868764,0.03490355,-0.00339082,0.00180528,0.0019
 3245,0.02715376,0.04191007,-0.01686365\\\@


 VIRTUE IS LEARNED AT YOUR MOTHER'S KNEE,
 VICES ARE PICKED UP AT SOME OTHER JOINT.
 Job cpu time:  0 days  0 hours  1 minutes 53.5 seconds.
 File lengths (MBytes):  RWF=      9 Int=      0 D2E=      0 Chk=      1 Scr=      1
 Normal termination of Gaussian 09 at Fri Apr 25 17:10:01 2014.
************
total 320
drwxrwxr-x 2 henon henon   4096 25 avril 17:10 .
drwxrwxr-x 3 henon henon   4096 25 avril 17:09 ..
-rw-r--r-- 1 henon henon    392 25 avril 17:09 4Rfreq.inp
-rw-rw-r-- 1 henon henon 311803 25 avril 17:10 4Rfreq.out
Run on 12 cores
romeo164
************
