 Entering Gaussian System, Link 0=g09
 Initial command:
 /apps/gaussian/g09/l1.exe /scratch_l/henon/9Rfreq_1327/Gau-1344.inp -scrdir=/scratch_l/henon/9Rfreq_1327/
 Entering Link 1 = /apps/gaussian/g09/l1.exe PID=      1345.
  
 Copyright (c) 1988,1990,1992,1993,1995,1998,2003,2009, Gaussian, Inc.
                  All Rights Reserved.
  
 This is part of the Gaussian(R) 09 program.  It is based on
 the Gaussian(R) 03 system (copyright 2003, Gaussian, Inc.),
 the Gaussian(R) 98 system (copyright 1998, Gaussian, Inc.),
 the Gaussian(R) 94 system (copyright 1995, Gaussian, Inc.),
 the Gaussian 92(TM) system (copyright 1992, Gaussian, Inc.),
 the Gaussian 90(TM) system (copyright 1990, Gaussian, Inc.),
 the Gaussian 88(TM) system (copyright 1988, Gaussian, Inc.),
 the Gaussian 86(TM) system (copyright 1986, Carnegie Mellon
 University), and the Gaussian 82(TM) system (copyright 1983,
 Carnegie Mellon University). Gaussian is a federally registered
 trademark of Gaussian, Inc.
  
 This software contains proprietary and confidential information,
 including trade secrets, belonging to Gaussian, Inc.
  
 This software is provided under written license and may be
 used, copied, transmitted, or stored only in accord with that
 written license.
  
 The following legend is applicable only to US Government
 contracts under FAR:
  
                    RESTRICTED RIGHTS LEGEND
  
 Use, reproduction and disclosure by the US Government is
 subject to restrictions as set forth in subparagraphs (a)
 and (c) of the Commercial Computer Software - Restricted
 Rights clause in FAR 52.227-19.
  
 Gaussian, Inc.
 340 Quinnipiac St., Bldg. 40, Wallingford CT 06492
  
  
 ---------------------------------------------------------------
 Warning -- This program may not be used in any manner that
 competes with the business of Gaussian, Inc. or will provide
 assistance to any competitor of Gaussian, Inc.  The licensee
 of this program is prohibited from giving any competitor of
 Gaussian, Inc. access to this program.  By using this program,
 the user acknowledges that Gaussian, Inc. is engaged in the
 business of creating and licensing software in the field of
 computational chemistry and represents and warrants to the
 licensee that it is not a competitor of Gaussian, Inc. and that
 it will not use this program in any manner prohibited above.
 ---------------------------------------------------------------
  

 Cite this work as:
 Gaussian 09, Revision A.02,
 M. J. Frisch, G. W. Trucks, H. B. Schlegel, G. E. Scuseria, 
 M. A. Robb, J. R. Cheeseman, G. Scalmani, V. Barone, B. Mennucci, 
 G. A. Petersson, H. Nakatsuji, M. Caricato, X. Li, H. P. Hratchian, 
 A. F. Izmaylov, J. Bloino, G. Zheng, J. L. Sonnenberg, M. Hada, 
 M. Ehara, K. Toyota, R. Fukuda, J. Hasegawa, M. Ishida, T. Nakajima, 
 Y. Honda, O. Kitao, H. Nakai, T. Vreven, J. A. Montgomery, Jr., 
 J. E. Peralta, F. Ogliaro, M. Bearpark, J. J. Heyd, E. Brothers, 
 K. N. Kudin, V. N. Staroverov, R. Kobayashi, J. Normand, 
 K. Raghavachari, A. Rendell, J. C. Burant, S. S. Iyengar, J. Tomasi, 
 M. Cossi, N. Rega, J. M. Millam, M. Klene, J. E. Knox, J. B. Cross, 
 V. Bakken, C. Adamo, J. Jaramillo, R. Gomperts, R. E. Stratmann, 
 O. Yazyev, A. J. Austin, R. Cammi, C. Pomelli, J. W. Ochterski, 
 R. L. Martin, K. Morokuma, V. G. Zakrzewski, G. A. Voth, 
 P. Salvador, J. J. Dannenberg, S. Dapprich, A. D. Daniels, 
 O. Farkas, J. B. Foresman, J. V. Ortiz, J. Cioslowski, 
 and D. J. Fox, Gaussian, Inc., Wallingford CT, 2009.
 
 ******************************************
 Gaussian 09:  AM64L-G09RevA.02 11-Jun-2009
                25-Apr-2014 
 ******************************************
 %NPROC=12
 Will use up to   12 processors via shared memory.
 %MEM=500MB
 --------------------------------------------------
 #P M06 6-311G** FREQ # GFINPUT IOP(6/7=3) POP=FULL
 --------------------------------------------------
 1/10=4,30=1,38=1/1,3;
 2/12=2,17=6,18=5,40=1/2;
 3/5=4,6=6,7=101,11=2,16=1,24=10,25=1,30=1,71=2,74=-54/1,2,3;
 4//1;
 5/5=2,38=5,98=1/2;
 8/6=4,10=90,11=11/1;
 11/6=1,8=1,9=11,15=111,16=1/1,2,10;
 10/6=1/2;
 6/7=3,18=1,28=1/1;
 7/8=1,10=1,25=1/1,2,3,16;
 1/10=4,30=1/3;
 99//99;
 Leave Link    1 at Fri Apr 25 17:10:01 2014, MaxMem=   65536000 cpu:       0.3
 (Enter /apps/gaussian/g09/l101.exe)
 ----------------------------------
 reverse IRC, from TS reverse1 freq
 ----------------------------------
 Symbolic Z-matrix:
 Charge =  0 Multiplicity = 2
 7                    -0.20143  -0.13294   0.08734 
 7                    -0.18662   0.01445   1.24869 
 7                     0.3464    0.06011  -1.11397 
 1                    -0.3809   -0.05341  -1.80638 
 1                     0.96199   0.86408  -1.27816 
 
 NAtoms=      5 NQM=      5 NQMF=      0 NMic=      0 NMicF=      0 NTot=      5.
                    Isotopes and Nuclear Properties:
 (Nuclear quadrupole moments (NQMom) in fm**2, nuclear magnetic moments (NMagM)
  in nuclear magnetons)

  Atom         1           2           3           4           5
 IAtWgt=          14          14          14           1           1
 AtmWgt=  14.0030740  14.0030740  14.0030740   1.0078250   1.0078250
 NucSpn=           2           2           2           1           1
 AtZEff=   0.0000000   0.0000000   0.0000000   0.0000000   0.0000000
 NQMom=    2.0440000   2.0440000   2.0440000   0.0000000   0.0000000
 NMagM=    0.4037610   0.4037610   0.4037610   2.7928460   2.7928460
 Leave Link  101 at Fri Apr 25 17:10:02 2014, MaxMem=   65536000 cpu:       0.6
 (Enter /apps/gaussian/g09/l103.exe)

 GradGradGradGradGradGradGradGradGradGradGradGradGradGradGradGradGradGrad
 Berny optimization.
 Initialization pass.
 Trust Radius=3.00D-01 FncErr=1.00D-07 GrdErr=1.00D-07
 Number of steps in this run=   2 maximum allowed number of steps=   2.
 GradGradGradGradGradGradGradGradGradGradGradGradGradGradGradGradGradGrad

 Leave Link  103 at Fri Apr 25 17:10:02 2014, MaxMem=   65536000 cpu:       0.1
 (Enter /apps/gaussian/g09/l202.exe)
                          Input orientation:                          
 ---------------------------------------------------------------------
 Center     Atomic      Atomic             Coordinates (Angstroms)
 Number     Number       Type             X           Y           Z
 ---------------------------------------------------------------------
      1          7           0       -0.201426   -0.132940    0.087335
      2          7           0       -0.186623    0.014445    1.248692
      3          7           0        0.346404    0.060107   -1.113972
      4          1           0       -0.380901   -0.053413   -1.806384
      5          1           0        0.961990    0.864076   -1.278158
 ---------------------------------------------------------------------
                    Distance matrix (angstroms):
                    1          2          3          4          5
     1  N    0.000000
     2  N    1.170765   0.000000
     3  N    1.334363   2.422475   0.000000
     4  H    1.903866   3.061999   1.010591   0.000000
     5  H    2.052352   2.902784   1.025802   1.710019   0.000000
 Stoichiometry    H2N3(2)
 Framework group  C1[X(H2N3)]
 Deg. of freedom     9
 Full point group                 C1      NOp   1
 Largest Abelian subgroup         C1      NOp   1
 Largest concise Abelian subgroup C1      NOp   1
                         Standard orientation:                         
 ---------------------------------------------------------------------
 Center     Atomic      Atomic             Coordinates (Angstroms)
 Number     Number       Type             X           Y           Z
 ---------------------------------------------------------------------
      1          7           0        0.205324   -0.223289   -0.009278
      2          7           0        1.324835    0.118202    0.018484
      3          7           0       -1.094953    0.067053   -0.083484
      4          1           0       -1.608051   -0.716943    0.295162
      5          1           0       -1.438389    0.983182    0.224783
 ---------------------------------------------------------------------
 Rotational constants (GHZ):    189.4847498     10.8268479     10.3343530
 Leave Link  202 at Fri Apr 25 17:10:02 2014, MaxMem=   65536000 cpu:       0.0
 (Enter /apps/gaussian/g09/l301.exe)
 Standard basis: 6-311G(d,p) (5D, 7F)
 Ernie: Thresh=  0.10000D-02 Tol=  0.10000D-05 Strict=F.
 AO basis set in the form of general basis input (Overlap normalization):
      1 0
 S   6 1.00       0.000000000000
      0.6293480000D+04  0.1969788147D-02
      0.9490440000D+03  0.1496128592D-01
      0.2187760000D+03  0.7350053084D-01
      0.6369160000D+02  0.2489367658D+00
      0.1882820000D+02  0.6024594331D+00
      0.2720230000D+01  0.2562017589D+00
 SP   3 1.00       0.000000000000
      0.3063310000D+02  0.1119060795D+00  0.3831191864D-01
      0.7026140000D+01  0.9216666549D+00  0.2374031155D+00
      0.2112050000D+01 -0.2569191826D-02  0.8175923978D+00
 SP   1 1.00       0.000000000000
      0.6840090000D+00  0.1000000000D+01  0.1000000000D+01
 SP   1 1.00       0.000000000000
      0.2008780000D+00  0.1000000000D+01  0.1000000000D+01
 D   1 1.00       0.000000000000
      0.9130000000D+00  0.1000000000D+01
 ****
      2 0
 S   6 1.00       0.000000000000
      0.6293480000D+04  0.1969788147D-02
      0.9490440000D+03  0.1496128592D-01
      0.2187760000D+03  0.7350053084D-01
      0.6369160000D+02  0.2489367658D+00
      0.1882820000D+02  0.6024594331D+00
      0.2720230000D+01  0.2562017589D+00
 SP   3 1.00       0.000000000000
      0.3063310000D+02  0.1119060795D+00  0.3831191864D-01
      0.7026140000D+01  0.9216666549D+00  0.2374031155D+00
      0.2112050000D+01 -0.2569191826D-02  0.8175923978D+00
 SP   1 1.00       0.000000000000
      0.6840090000D+00  0.1000000000D+01  0.1000000000D+01
 SP   1 1.00       0.000000000000
      0.2008780000D+00  0.1000000000D+01  0.1000000000D+01
 D   1 1.00       0.000000000000
      0.9130000000D+00  0.1000000000D+01
 ****
      3 0
 S   6 1.00       0.000000000000
      0.6293480000D+04  0.1969788147D-02
      0.9490440000D+03  0.1496128592D-01
      0.2187760000D+03  0.7350053084D-01
      0.6369160000D+02  0.2489367658D+00
      0.1882820000D+02  0.6024594331D+00
      0.2720230000D+01  0.2562017589D+00
 SP   3 1.00       0.000000000000
      0.3063310000D+02  0.1119060795D+00  0.3831191864D-01
      0.7026140000D+01  0.9216666549D+00  0.2374031155D+00
      0.2112050000D+01 -0.2569191826D-02  0.8175923978D+00
 SP   1 1.00       0.000000000000
      0.6840090000D+00  0.1000000000D+01  0.1000000000D+01
 SP   1 1.00       0.000000000000
      0.2008780000D+00  0.1000000000D+01  0.1000000000D+01
 D   1 1.00       0.000000000000
      0.9130000000D+00  0.1000000000D+01
 ****
      4 0
 S   3 1.00       0.000000000000
      0.3386500000D+02  0.2549381454D-01
      0.5094790000D+01  0.1903731086D+00
      0.1158790000D+01  0.8521614860D+00
 S   1 1.00       0.000000000000
      0.3258400000D+00  0.1000000000D+01
 S   1 1.00       0.000000000000
      0.1027410000D+00  0.1000000000D+01
 P   1 1.00       0.000000000000
      0.7500000000D+00  0.1000000000D+01
 ****
      5 0
 S   3 1.00       0.000000000000
      0.3386500000D+02  0.2549381454D-01
      0.5094790000D+01  0.1903731086D+00
      0.1158790000D+01  0.8521614860D+00
 S   1 1.00       0.000000000000
      0.3258400000D+00  0.1000000000D+01
 S   1 1.00       0.000000000000
      0.1027410000D+00  0.1000000000D+01
 P   1 1.00       0.000000000000
      0.7500000000D+00  0.1000000000D+01
 ****

 There are    66 symmetry adapted basis functions of A   symmetry.
 Integral buffers will be    131072 words long.
 Raffenetti 2 integral format.
 Two-electron integral symmetry is turned on.
    66 basis functions,   112 primitive gaussians,    69 cartesian basis functions
    12 alpha electrons       11 beta electrons
       nuclear repulsion energy        66.1060039061 Hartrees.
 IExCor= 4235 DFT=T Ex+Corr=M06 ExCW=0 ScaHFX=  0.270000
 ScaDFX=  1.000000  1.000000  1.000000  1.000000 ScalE2=  1.000000  1.000000
 IRadAn=      0 IRanWt=     -1 IRanGd=            0 ICorTp=0
 NAtoms=    5 NActive=    5 NUniq=    5 SFac= 7.50D-01 NAtFMM=   80 NAOKFM=F Big=F
 Leave Link  301 at Fri Apr 25 17:10:02 2014, MaxMem=   65536000 cpu:       0.4
 (Enter /apps/gaussian/g09/l302.exe)
 NPDir=0 NMtPBC=     1 NCelOv=     1 NCel=       1 NClECP=     1 NCelD=      1
         NCelK=      1 NCelE2=     1 NClLst=     1 CellRange=     0.0.
 One-electron integrals computed using PRISM.
 NBasis=    66 RedAO= T  NBF=    66
 NBsUse=    66 1.00D-06 NBFU=    66
 Precomputing XC quadrature grid using
 IXCGrd= 2 IRadAn=           0 IRanWt=          -1 IRanGd=           0 AccXCQ= 1.00D-10.
 NRdTot=     311 NPtTot=       39306 NUsed=       41561 NTot=       41593
 NSgBfM=    69    69    69    69    69 NAtAll=     5     5.
 Leave Link  302 at Fri Apr 25 17:10:02 2014, MaxMem=   65536000 cpu:       2.0
 (Enter /apps/gaussian/g09/l303.exe)
 DipDrv:  MaxL=1.
 Leave Link  303 at Fri Apr 25 17:10:02 2014, MaxMem=   65536000 cpu:       1.8
 (Enter /apps/gaussian/g09/l401.exe)
 Harris functional with IExCor= 1009 diagonalized for initial guess.
 ExpMin= 1.03D-01 ExpMax= 6.29D+03 ExpMxC= 9.49D+02 IAcc=1 IRadAn=         1 AccDes= 0.00D+00
 HarFok:  IExCor= 1009 AccDes= 0.00D+00 IRadAn=         1 IDoV= 1
 ScaDFX=  1.000000  1.000000  1.000000  1.000000
 FoFCou: FMM=F IPFlag=           0 FMFlag=      100000 FMFlg1=           0
         NFxFlg=           0 DoJE=T BraDBF=F KetDBF=T FulRan=T
         Omega=  0.000000  0.000000  1.000000  0.000000  0.000000 ICntrl=     500 IOpCl=  0
         NMat0=    1 NMatS0=    1 NMatT0=    0 NMatD0=    1 NMtDS0=    0 NMtDT0=    0
         I1Cent=           4 NGrid=           0.
 Petite list used in FoFCou.
 Harris En= -165.241214185801    
 Initial guess orbital symmetries:
 Alpha Orbitals:
       Occupied  (A) (A) (A) (A) (A) (A) (A) (A) (A) (A) (A) (A)
       Virtual   (A) (A) (A) (A) (A) (A) (A) (A) (A) (A) (A) (A)
                 (A) (A) (A) (A) (A) (A) (A) (A) (A) (A) (A) (A)
                 (A) (A) (A) (A) (A) (A) (A) (A) (A) (A) (A) (A)
                 (A) (A) (A) (A) (A) (A) (A) (A) (A) (A) (A) (A)
                 (A) (A) (A) (A) (A) (A)
 Beta  Orbitals:
       Occupied  (A) (A) (A) (A) (A) (A) (A) (A) (A) (A) (A)
       Virtual   (A) (A) (A) (A) (A) (A) (A) (A) (A) (A) (A) (A)
                 (A) (A) (A) (A) (A) (A) (A) (A) (A) (A) (A) (A)
                 (A) (A) (A) (A) (A) (A) (A) (A) (A) (A) (A) (A)
                 (A) (A) (A) (A) (A) (A) (A) (A) (A) (A) (A) (A)
                 (A) (A) (A) (A) (A) (A) (A)
 The electronic state of the initial guess is 2-A.
 Initial guess <Sx>= 0.0000 <Sy>= 0.0000 <Sz>= 0.5000 <S**2>= 0.7500 S= 0.5000
 Leave Link  401 at Fri Apr 25 17:10:02 2014, MaxMem=   65536000 cpu:       2.2
 (Enter /apps/gaussian/g09/l502.exe)
 UHF open shell SCF:
 Requested convergence on RMS density matrix=1.00D-08 within 128 cycles.
 Requested convergence on MAX density matrix=1.00D-06.
 Requested convergence on             energy=1.00D-06.
 No special actions if energy rises.
 Using DIIS extrapolation, IDIIS=  1040.
 Integral symmetry usage will be decided dynamically.
        41503 words used for storage of precomputed grid.
 Keep R1 and R2 ints in memory in canonical form, NReq=6799076.
 IEnd=       75273 IEndB=       75273 NGot=    65536000 MDV=    59647530
 LenX=    59647530 LenY=    59642328
 Symmetry not used in FoFDir.
 MinBra= 0 MaxBra= 2 Meth= 1.
 IRaf=       0 NMat=   1 IRICut=       1 DoRegI=T DoRafI=F ISym2E= 0 JSym2E=0.
 Integral accuracy reduced to 1.0D-05 until final iterations.

 Cycle   1  Pass 0  IDiag  1:
 E= -165.237179790981    
 DIIS: error= 2.86D-02 at cycle   1 NSaved=   1.
 NSaved= 1 IEnMin= 1 EnMin= -165.237179790981     IErMin= 1 ErrMin= 2.86D-02
 ErrMax= 2.86D-02 EMaxC= 1.00D-01 BMatC= 2.11D-01 BMatP= 2.11D-01
 IDIUse=3 WtCom= 7.14D-01 WtEn= 2.86D-01
 Coeff-Com:  0.100D+01
 Coeff-En:   0.100D+01
 Coeff:      0.100D+01
 Gap=     0.168 Goal=   None    Shift=    0.000
 Gap=     0.272 Goal=   None    Shift=    0.000
 GapD=    0.168 DampG=1.000 DampE=0.500 DampFc=0.5000 IDamp=-1.
 Damping current iteration by 5.00D-01
 RMSDP=7.98D-03 MaxDP=2.30D-01              OVMax= 1.68D-01

 Cycle   2  Pass 0  IDiag  1:
 E= -165.251468166956     Delta-E=       -0.014288375975 Rises=F Damp=T
 DIIS: error= 1.11D-02 at cycle   2 NSaved=   2.
 NSaved= 2 IEnMin= 2 EnMin= -165.251468166956     IErMin= 2 ErrMin= 1.11D-02
 ErrMax= 1.11D-02 EMaxC= 1.00D-01 BMatC= 3.95D-02 BMatP= 2.11D-01
 IDIUse=3 WtCom= 8.89D-01 WtEn= 1.11D-01
 Coeff-Com:  0.213D+00 0.787D+00
 Coeff-En:   0.306D+00 0.694D+00
 Coeff:      0.223D+00 0.777D+00
 Gap=     0.190 Goal=   None    Shift=    0.000
 Gap=     0.273 Goal=   None    Shift=    0.000
 RMSDP=1.90D-03 MaxDP=5.02D-02 DE=-1.43D-02 OVMax= 1.15D-01

 Cycle   3  Pass 0  IDiag  1:
 E= -165.276356554781     Delta-E=       -0.024888387825 Rises=F Damp=F
 DIIS: error= 1.35D-02 at cycle   3 NSaved=   3.
 NSaved= 3 IEnMin= 3 EnMin= -165.276356554781     IErMin= 2 ErrMin= 1.11D-02
 ErrMax= 1.35D-02 EMaxC= 1.00D-01 BMatC= 3.84D-02 BMatP= 3.95D-02
 IDIUse=3 WtCom= 8.65D-01 WtEn= 1.35D-01
 Coeff-Com:  0.586D-01 0.480D+00 0.461D+00
 Coeff-En:   0.000D+00 0.000D+00 0.100D+01
 Coeff:      0.507D-01 0.415D+00 0.534D+00
 Gap=     0.171 Goal=   None    Shift=    0.000
 Gap=     0.277 Goal=   None    Shift=    0.000
 RMSDP=1.38D-03 MaxDP=1.72D-02 DE=-2.49D-02 OVMax= 4.84D-02

 Cycle   4  Pass 0  IDiag  1:
 E= -165.281710387578     Delta-E=       -0.005353832797 Rises=F Damp=F
 DIIS: error= 7.23D-03 at cycle   4 NSaved=   4.
 NSaved= 4 IEnMin= 4 EnMin= -165.281710387578     IErMin= 4 ErrMin= 7.23D-03
 ErrMax= 7.23D-03 EMaxC= 1.00D-01 BMatC= 1.17D-02 BMatP= 3.84D-02
 IDIUse=3 WtCom= 9.28D-01 WtEn= 7.23D-02
 Coeff-Com:  0.199D-01 0.462D-01 0.349D+00 0.585D+00
 Coeff-En:   0.000D+00 0.000D+00 0.283D+00 0.717D+00
 Coeff:      0.185D-01 0.429D-01 0.344D+00 0.594D+00
 Gap=     0.173 Goal=   None    Shift=    0.000
 Gap=     0.271 Goal=   None    Shift=    0.000
 RMSDP=7.56D-04 MaxDP=1.77D-02 DE=-5.35D-03 OVMax= 2.25D-02

 Cycle   5  Pass 0  IDiag  1:
 E= -165.284052656832     Delta-E=       -0.002342269254 Rises=F Damp=F
 DIIS: error= 1.23D-03 at cycle   5 NSaved=   5.
 NSaved= 5 IEnMin= 5 EnMin= -165.284052656832     IErMin= 5 ErrMin= 1.23D-03
 ErrMax= 1.23D-03 EMaxC= 1.00D-01 BMatC= 3.54D-04 BMatP= 1.17D-02
 IDIUse=3 WtCom= 9.88D-01 WtEn= 1.23D-02
 Coeff-Com:  0.704D-02-0.185D-01 0.136D+00 0.307D+00 0.568D+00
 Coeff-En:   0.000D+00 0.000D+00 0.000D+00 0.000D+00 0.100D+01
 Coeff:      0.696D-02-0.183D-01 0.135D+00 0.304D+00 0.573D+00
 Gap=     0.173 Goal=   None    Shift=    0.000
 Gap=     0.273 Goal=   None    Shift=    0.000
 RMSDP=1.35D-04 MaxDP=1.98D-03 DE=-2.34D-03 OVMax= 4.35D-03

 Cycle   6  Pass 0  IDiag  1:
 E= -165.284140489145     Delta-E=       -0.000087832313 Rises=F Damp=F
 DIIS: error= 4.79D-04 at cycle   6 NSaved=   6.
 NSaved= 6 IEnMin= 6 EnMin= -165.284140489145     IErMin= 6 ErrMin= 4.79D-04
 ErrMax= 4.79D-04 EMaxC= 1.00D-01 BMatC= 2.73D-05 BMatP= 3.54D-04
 IDIUse=3 WtCom= 9.95D-01 WtEn= 4.79D-03
 Coeff-Com: -0.203D-02-0.149D-01-0.292D-01-0.409D-01 0.129D+00 0.958D+00
 Coeff-En:   0.000D+00 0.000D+00 0.000D+00 0.000D+00 0.000D+00 0.100D+01
 Coeff:     -0.202D-02-0.148D-01-0.290D-01-0.407D-01 0.128D+00 0.958D+00
 Gap=     0.173 Goal=   None    Shift=    0.000
 Gap=     0.273 Goal=   None    Shift=    0.000
 RMSDP=1.00D-04 MaxDP=2.86D-03 DE=-8.78D-05 OVMax= 3.21D-03

 Cycle   7  Pass 0  IDiag  1:
 E= -165.284160359247     Delta-E=       -0.000019870102 Rises=F Damp=F
 DIIS: error= 2.14D-04 at cycle   7 NSaved=   7.
 NSaved= 7 IEnMin= 7 EnMin= -165.284160359247     IErMin= 7 ErrMin= 2.14D-04
 ErrMax= 2.14D-04 EMaxC= 1.00D-01 BMatC= 4.42D-06 BMatP= 2.73D-05
 IDIUse=3 WtCom= 9.98D-01 WtEn= 2.14D-03
 Coeff-Com: -0.761D-03 0.287D-02-0.204D-01-0.507D-01-0.132D+00 0.149D-01
 Coeff-Com:  0.119D+01
 Coeff-En:   0.000D+00 0.000D+00 0.000D+00 0.000D+00 0.000D+00 0.000D+00
 Coeff-En:   0.100D+01
 Coeff:     -0.759D-03 0.287D-02-0.204D-01-0.506D-01-0.131D+00 0.149D-01
 Coeff:      0.119D+01
 Gap=     0.173 Goal=   None    Shift=    0.000
 Gap=     0.274 Goal=   None    Shift=    0.000
 RMSDP=4.56D-05 MaxDP=8.26D-04 DE=-1.99D-05 OVMax= 2.16D-03

 Cycle   8  Pass 0  IDiag  1:
 E= -165.284166228621     Delta-E=       -0.000005869374 Rises=F Damp=F
 DIIS: error= 7.80D-05 at cycle   8 NSaved=   8.
 NSaved= 8 IEnMin= 8 EnMin= -165.284166228621     IErMin= 8 ErrMin= 7.80D-05
 ErrMax= 7.80D-05 EMaxC= 1.00D-01 BMatC= 5.98D-07 BMatP= 4.42D-06
 IDIUse=1 WtCom= 1.00D+00 WtEn= 0.00D+00
 Coeff-Com:  0.580D-03 0.923D-03 0.636D-02 0.115D-01-0.813D-02-0.141D+00
 Coeff-Com: -0.161D+00 0.129D+01
 Coeff:      0.580D-03 0.923D-03 0.636D-02 0.115D-01-0.813D-02-0.141D+00
 Coeff:     -0.161D+00 0.129D+01
 Gap=     0.173 Goal=   None    Shift=    0.000
 Gap=     0.274 Goal=   None    Shift=    0.000
 RMSDP=2.13D-05 MaxDP=3.98D-04 DE=-5.87D-06 OVMax= 1.20D-03

 Cycle   9  Pass 0  IDiag  1:
 E= -165.284167313568     Delta-E=       -0.000001084946 Rises=F Damp=F
 DIIS: error= 2.90D-05 at cycle   9 NSaved=   9.
 NSaved= 9 IEnMin= 9 EnMin= -165.284167313568     IErMin= 9 ErrMin= 2.90D-05
 ErrMax= 2.90D-05 EMaxC= 1.00D-01 BMatC= 9.49D-08 BMatP= 5.98D-07
 IDIUse=1 WtCom= 1.00D+00 WtEn= 0.00D+00
 Coeff-Com:  0.384D-04-0.966D-04 0.246D-02 0.717D-02 0.196D-01-0.248D-02
 Coeff-Com: -0.179D+00 0.115D-01 0.114D+01
 Coeff:      0.384D-04-0.966D-04 0.246D-02 0.717D-02 0.196D-01-0.248D-02
 Coeff:     -0.179D+00 0.115D-01 0.114D+01
 Gap=     0.173 Goal=   None    Shift=    0.000
 Gap=     0.274 Goal=   None    Shift=    0.000
 RMSDP=6.88D-06 MaxDP=1.30D-04 DE=-1.08D-06 OVMax= 3.86D-04

 Initial convergence to 1.0D-05 achieved.  Increase integral accuracy.
 Cycle  10  Pass 1  IDiag  1:
 E= -165.284185512982     Delta-E=       -0.000018199414 Rises=F Damp=F
 DIIS: error= 1.43D-04 at cycle   1 NSaved=   1.
 NSaved= 1 IEnMin= 1 EnMin= -165.284185512982     IErMin= 1 ErrMin= 1.43D-04
 ErrMax= 1.43D-04 EMaxC= 1.00D-01 BMatC= 1.00D-05 BMatP= 1.00D-05
 IDIUse=3 WtCom= 9.99D-01 WtEn= 1.43D-03
 Coeff-Com:  0.100D+01
 Coeff-En:   0.100D+01
 Coeff:      0.100D+01
 Gap=     0.173 Goal=   None    Shift=    0.000
 Gap=     0.274 Goal=   None    Shift=    0.000
 RMSDP=6.88D-06 MaxDP=1.30D-04 DE=-1.82D-05 OVMax= 4.72D-04

 Cycle  11  Pass 1  IDiag  1:
 E= -165.284187633578     Delta-E=       -0.000002120596 Rises=F Damp=F
 DIIS: error= 1.16D-05 at cycle   2 NSaved=   2.
 NSaved= 2 IEnMin= 2 EnMin= -165.284187633578     IErMin= 2 ErrMin= 1.16D-05
 ErrMax= 1.16D-05 EMaxC= 1.00D-01 BMatC= 8.35D-08 BMatP= 1.00D-05
 IDIUse=1 WtCom= 1.00D+00 WtEn= 0.00D+00
 Coeff-Com: -0.102D-02 0.100D+01
 Coeff:     -0.102D-02 0.100D+01
 Gap=     0.173 Goal=   None    Shift=    0.000
 Gap=     0.274 Goal=   None    Shift=    0.000
 RMSDP=5.11D-06 MaxDP=6.29D-05 DE=-2.12D-06 OVMax= 8.08D-05

 Cycle  12  Pass 1  IDiag  1:
 E= -165.284187652789     Delta-E=       -0.000000019211 Rises=F Damp=F
 DIIS: error= 8.56D-06 at cycle   3 NSaved=   3.
 NSaved= 3 IEnMin= 3 EnMin= -165.284187652789     IErMin= 3 ErrMin= 8.56D-06
 ErrMax= 8.56D-06 EMaxC= 1.00D-01 BMatC= 1.89D-08 BMatP= 8.35D-08
 IDIUse=1 WtCom= 1.00D+00 WtEn= 0.00D+00
 Coeff-Com: -0.821D-02 0.281D+00 0.727D+00
 Coeff:     -0.821D-02 0.281D+00 0.727D+00
 Gap=     0.173 Goal=   None    Shift=    0.000
 Gap=     0.274 Goal=   None    Shift=    0.000
 RMSDP=1.08D-06 MaxDP=1.68D-05 DE=-1.92D-08 OVMax= 2.50D-05

 Cycle  13  Pass 1  IDiag  1:
 E= -165.284187655724     Delta-E=       -0.000000002935 Rises=F Damp=F
 DIIS: error= 5.61D-06 at cycle   4 NSaved=   4.
 NSaved= 4 IEnMin= 4 EnMin= -165.284187655724     IErMin= 4 ErrMin= 5.61D-06
 ErrMax= 5.61D-06 EMaxC= 1.00D-01 BMatC= 6.58D-09 BMatP= 1.89D-08
 IDIUse=1 WtCom= 1.00D+00 WtEn= 0.00D+00
 Coeff-Com: -0.464D-02 0.833D-01 0.382D+00 0.540D+00
 Coeff:     -0.464D-02 0.833D-01 0.382D+00 0.540D+00
 Gap=     0.173 Goal=   None    Shift=    0.000
 Gap=     0.274 Goal=   None    Shift=    0.000
 RMSDP=6.13D-07 MaxDP=7.76D-06 DE=-2.94D-09 OVMax= 2.40D-05

 Cycle  14  Pass 1  IDiag  1:
 E= -165.284187656650     Delta-E=       -0.000000000926 Rises=F Damp=F
 DIIS: error= 4.43D-06 at cycle   5 NSaved=   5.
 NSaved= 5 IEnMin= 5 EnMin= -165.284187656650     IErMin= 5 ErrMin= 4.43D-06
 ErrMax= 4.43D-06 EMaxC= 1.00D-01 BMatC= 2.64D-09 BMatP= 6.58D-09
 IDIUse=1 WtCom= 1.00D+00 WtEn= 0.00D+00
 Coeff-Com: -0.181D-02 0.708D-02 0.129D+00 0.388D+00 0.478D+00
 Coeff:     -0.181D-02 0.708D-02 0.129D+00 0.388D+00 0.478D+00
 Gap=     0.173 Goal=   None    Shift=    0.000
 Gap=     0.274 Goal=   None    Shift=    0.000
 RMSDP=3.60D-07 MaxDP=8.36D-06 DE=-9.26D-10 OVMax= 1.32D-05

 Cycle  15  Pass 1  IDiag  1:
 E= -165.284187657255     Delta-E=       -0.000000000604 Rises=F Damp=F
 DIIS: error= 1.41D-06 at cycle   6 NSaved=   6.
 NSaved= 6 IEnMin= 6 EnMin= -165.284187657255     IErMin= 6 ErrMin= 1.41D-06
 ErrMax= 1.41D-06 EMaxC= 1.00D-01 BMatC= 2.00D-10 BMatP= 2.64D-09
 IDIUse=1 WtCom= 1.00D+00 WtEn= 0.00D+00
 Coeff-Com:  0.256D-03-0.134D-01-0.335D-01 0.183D-01 0.197D+00 0.831D+00
 Coeff:      0.256D-03-0.134D-01-0.335D-01 0.183D-01 0.197D+00 0.831D+00
 Gap=     0.173 Goal=   None    Shift=    0.000
 Gap=     0.274 Goal=   None    Shift=    0.000
 RMSDP=1.66D-07 MaxDP=3.03D-06 DE=-6.04D-10 OVMax= 8.67D-06

 Cycle  16  Pass 1  IDiag  1:
 E= -165.284187657382     Delta-E=       -0.000000000127 Rises=F Damp=F
 DIIS: error= 4.43D-07 at cycle   7 NSaved=   7.
 NSaved= 7 IEnMin= 7 EnMin= -165.284187657382     IErMin= 7 ErrMin= 4.43D-07
 ErrMax= 4.43D-07 EMaxC= 1.00D-01 BMatC= 3.15D-11 BMatP= 2.00D-10
 IDIUse=1 WtCom= 1.00D+00 WtEn= 0.00D+00
 Coeff-Com:  0.474D-03 0.283D-03-0.312D-01-0.120D+00-0.180D+00-0.173D+00
 Coeff-Com:  0.150D+01
 Coeff:      0.474D-03 0.283D-03-0.312D-01-0.120D+00-0.180D+00-0.173D+00
 Coeff:      0.150D+01
 Gap=     0.173 Goal=   None    Shift=    0.000
 Gap=     0.274 Goal=   None    Shift=    0.000
 RMSDP=1.53D-07 MaxDP=2.87D-06 DE=-1.27D-10 OVMax= 8.42D-06

 Cycle  17  Pass 1  IDiag  1:
 E= -165.284187657443     Delta-E=       -0.000000000061 Rises=F Damp=F
 DIIS: error= 1.94D-07 at cycle   8 NSaved=   8.
 NSaved= 8 IEnMin= 8 EnMin= -165.284187657443     IErMin= 8 ErrMin= 1.94D-07
 ErrMax= 1.94D-07 EMaxC= 1.00D-01 BMatC= 6.15D-12 BMatP= 3.15D-11
 IDIUse=1 WtCom= 1.00D+00 WtEn= 0.00D+00
 Coeff-Com:  0.122D-03 0.139D-02-0.553D-02-0.402D-01-0.864D-01-0.197D+00
 Coeff-Com:  0.500D+00 0.827D+00
 Coeff:      0.122D-03 0.139D-02-0.553D-02-0.402D-01-0.864D-01-0.197D+00
 Coeff:      0.500D+00 0.827D+00
 Gap=     0.173 Goal=   None    Shift=    0.000
 Gap=     0.274 Goal=   None    Shift=    0.000
 RMSDP=4.41D-08 MaxDP=8.18D-07 DE=-6.14D-11 OVMax= 2.34D-06

 Cycle  18  Pass 1  IDiag  1:
 E= -165.284187657448     Delta-E=       -0.000000000005 Rises=F Damp=F
 DIIS: error= 1.13D-07 at cycle   9 NSaved=   9.
 NSaved= 9 IEnMin= 9 EnMin= -165.284187657448     IErMin= 9 ErrMin= 1.13D-07
 ErrMax= 1.13D-07 EMaxC= 1.00D-01 BMatC= 2.59D-12 BMatP= 6.15D-12
 IDIUse=1 WtCom= 1.00D+00 WtEn= 0.00D+00
 Coeff-Com: -0.388D-04 0.931D-03 0.456D-02 0.499D-02-0.625D-02-0.730D-01
 Coeff-Com: -0.623D-01 0.491D+00 0.640D+00
 Coeff:     -0.388D-04 0.931D-03 0.456D-02 0.499D-02-0.625D-02-0.730D-01
 Coeff:     -0.623D-01 0.491D+00 0.640D+00
 Gap=     0.173 Goal=   None    Shift=    0.000
 Gap=     0.274 Goal=   None    Shift=    0.000
 RMSDP=1.93D-08 MaxDP=3.88D-07 DE=-4.83D-12 OVMax= 1.00D-06

 Cycle  19  Pass 1  IDiag  1:
 E= -165.284187657449     Delta-E=       -0.000000000001 Rises=F Damp=F
 DIIS: error= 2.95D-08 at cycle  10 NSaved=  10.
 NSaved=10 IEnMin=10 EnMin= -165.284187657449     IErMin=10 ErrMin= 2.95D-08
 ErrMax= 2.95D-08 EMaxC= 1.00D-01 BMatC= 8.79D-14 BMatP= 2.59D-12
 IDIUse=1 WtCom= 1.00D+00 WtEn= 0.00D+00
 Coeff-Com: -0.227D-04-0.414D-04 0.172D-02 0.620D-02 0.927D-02 0.134D-01
 Coeff-Com: -0.801D-01-0.228D-01 0.113D+00 0.959D+00
 Coeff:     -0.227D-04-0.414D-04 0.172D-02 0.620D-02 0.927D-02 0.134D-01
 Coeff:     -0.801D-01-0.228D-01 0.113D+00 0.959D+00
 Gap=     0.173 Goal=   None    Shift=    0.000
 Gap=     0.274 Goal=   None    Shift=    0.000
 RMSDP=5.64D-09 MaxDP=7.90D-08 DE=-1.25D-12 OVMax= 3.30D-07

 SCF Done:  E(UM06) =  -165.284187657     A.U. after   19 cycles
             Convg  =    0.5640D-08             -V/T =  2.0019
 <Sx>= 0.0000 <Sy>= 0.0000 <Sz>= 0.5000 <S**2>= 0.7538 S= 0.5019
 <L.S>=  0.00000000000    
 KE= 1.649683273430D+02 PE=-5.194760893455D+02 EE= 1.231175704389D+02
 Annihilation of the first spin contaminant:
 S**2 before annihilation     0.7538,   after     0.7500
 Leave Link  502 at Fri Apr 25 17:10:04 2014, MaxMem=   65536000 cpu:      17.6
 (Enter /apps/gaussian/g09/l801.exe)
 Range of M.O.s used for correlation:     1    66
 NBasis=    66 NAE=    12 NBE=    11 NFC=     0 NFV=     0
 NROrb=     66 NOA=    12 NOB=    11 NVA=    54 NVB=    55
 Leave Link  801 at Fri Apr 25 17:10:04 2014, MaxMem=   65536000 cpu:       0.1
 (Enter /apps/gaussian/g09/l1101.exe)
 Using compressed storage, NAtomX=     5.
 Will process   6 centers per pass.
 Leave Link 1101 at Fri Apr 25 17:10:04 2014, MaxMem=   65536000 cpu:       1.4
 (Enter /apps/gaussian/g09/l1102.exe)
 Symmetrizing basis deriv contribution to polar:
 IMax=3 JMax=2 DiffMx= 0.00D+00
 Leave Link 1102 at Fri Apr 25 17:10:04 2014, MaxMem=   65536000 cpu:       0.3
 (Enter /apps/gaussian/g09/l1110.exe)
 Forming Gx(P) for the SCF density, NAtomX=     5.
 Integral derivatives from FoFDir/FoFCou, PRISM(SPDF).
 Do as many integral derivatives as possible in FoFDir.
 G2DrvN: MDV=      65535856.
 G2DrvN: will do     6 centers at a time, making    1 passes doing MaxLOS=2.
 Calling FoFCou, ICntrl=  3107 FMM=F I1Cent=   0 AccDes= 0.00D+00.
 FoFCou: FMM=F IPFlag=           0 FMFlag=      100000 FMFlg1=           0
         NFxFlg=           0 DoJE=F BraDBF=F KetDBF=F FulRan=T
         Omega=  0.000000  0.000000  1.000000  0.000000  0.000000 ICntrl=    3107 IOpCl=  1
         NMat0=    1 NMatS0=    1 NMatT0=    0 NMatD0=    1 NMtDS0=    0 NMtDT0=    0
         I1Cent=           0 NGrid=           0.
 Symmetry not used in FoFCou.
 FoFDir/FoFCou used for L=0 through L=2.
 End of G2Drv Frequency-dependent properties file   721 does not exist.
 End of G2Drv Frequency-dependent properties file   722 does not exist.
 Leave Link 1110 at Fri Apr 25 17:10:06 2014, MaxMem=   65536000 cpu:      16.7
 (Enter /apps/gaussian/g09/l1002.exe)
 Minotr:  UHF open shell wavefunction.
          IDoAtm=11111
          Direct CPHF calculation.
          Differentiating once with respect to electric field.
                with respect to dipole field.
          Differentiating once with respect to nuclear coordinates.
          Requested convergence is 1.0D-08 RMS, and 1.0D-07 maximum.
          Secondary convergence is 1.0D-12 RMS, and 1.0D-12 maximum.
          NewPWx=T KeepS1=F KeepF1=F KeepIn=T MapXYZ=F SortEE=F KeepMc=T.
          MDV=      65535946 using IRadAn=       2.
 Generate precomputed XC quadrature information.
          Keep R1 and R2 ints in memory in canonical form, NReq=6656460.
 Symmetry not used in FoFDir.
 MinBra= 0 MaxBra= 2 Meth= 1.
 IRaf=       0 NMat=   1 IRICut=       1 DoRegI=T DoRafI=F ISym2E= 0 JSym2E=0.
          Solving linear equations simultaneously, MaxMat=       0.
          There are    18 degrees of freedom in the 1st order CPHF.  IDoFFX=5.
     15 vectors produced by pass  0 Test12= 6.96D-15 5.56D-09 XBig12= 8.94D+01 4.48D+00.
 AX will form    15 AO Fock derivatives at one time.
     15 vectors produced by pass  1 Test12= 6.96D-15 5.56D-09 XBig12= 3.09D+01 1.41D+00.
     15 vectors produced by pass  2 Test12= 6.96D-15 5.56D-09 XBig12= 7.04D-01 1.84D-01.
     15 vectors produced by pass  3 Test12= 6.96D-15 5.56D-09 XBig12= 7.17D-03 1.95D-02.
     15 vectors produced by pass  4 Test12= 6.96D-15 5.56D-09 XBig12= 1.01D-04 1.51D-03.
     15 vectors produced by pass  5 Test12= 6.96D-15 5.56D-09 XBig12= 9.36D-07 2.04D-04.
     15 vectors produced by pass  6 Test12= 6.96D-15 5.56D-09 XBig12= 4.47D-09 1.13D-05.
      8 vectors produced by pass  7 Test12= 6.96D-15 5.56D-09 XBig12= 1.98D-11 6.83D-07.
      2 vectors produced by pass  8 Test12= 6.96D-15 5.56D-09 XBig12= 5.12D-14 3.38D-08.
 Inverted reduced A of dimension   115 with in-core refinement.
 FullF1:  Do perturbations    1 to     3.
 Isotropic polarizability for W=    0.000000       22.45 Bohr**3.
 End of Minotr Frequency-dependent properties file   721 does not exist.
 End of Minotr Frequency-dependent properties file   722 does not exist.
 Leave Link 1002 at Fri Apr 25 17:10:08 2014, MaxMem=   65536000 cpu:      27.5
 (Enter /apps/gaussian/g09/l601.exe)
 Copying SCF densities to generalized density rwf, IOpCl= 1 IROHF=0.

 **********************************************************************

            Population analysis using the SCF density.

 **********************************************************************

 Orbital symmetries:
 Alpha Orbitals:
       Occupied  (A) (A) (A) (A) (A) (A) (A) (A) (A) (A) (A) (A)
       Virtual   (A) (A) (A) (A) (A) (A) (A) (A) (A) (A) (A) (A)
                 (A) (A) (A) (A) (A) (A) (A) (A) (A) (A) (A) (A)
                 (A) (A) (A) (A) (A) (A) (A) (A) (A) (A) (A) (A)
                 (A) (A) (A) (A) (A) (A) (A) (A) (A) (A) (A) (A)
                 (A) (A) (A) (A) (A) (A)
 Beta  Orbitals:
       Occupied  (A) (A) (A) (A) (A) (A) (A) (A) (A) (A) (A)
       Virtual   (A) (A) (A) (A) (A) (A) (A) (A) (A) (A) (A) (A)
                 (A) (A) (A) (A) (A) (A) (A) (A) (A) (A) (A) (A)
                 (A) (A) (A) (A) (A) (A) (A) (A) (A) (A) (A) (A)
                 (A) (A) (A) (A) (A) (A) (A) (A) (A) (A) (A) (A)
                 (A) (A) (A) (A) (A) (A) (A)
 The electronic state is 2-A.
 Alpha  occ. eigenvalues --  -14.48599 -14.46081 -14.42221  -1.10453  -0.96171
 Alpha  occ. eigenvalues --   -0.67467  -0.58174  -0.48015  -0.46185  -0.41582
 Alpha  occ. eigenvalues --   -0.31567  -0.17093
 Alpha virt. eigenvalues --    0.00216   0.02801   0.07401   0.18825   0.33721
 Alpha virt. eigenvalues --    0.34747   0.45096   0.49427   0.52313   0.58258
 Alpha virt. eigenvalues --    0.60998   0.65513   0.68599   0.70224   0.73023
 Alpha virt. eigenvalues --    0.76184   0.80319   0.95446   1.12602   1.28087
 Alpha virt. eigenvalues --    1.35430   1.50239   1.63850   1.66450   1.70116
 Alpha virt. eigenvalues --    1.73820   1.76950   1.88252   1.94994   2.08630
 Alpha virt. eigenvalues --    2.12343   2.24972   2.33121   2.37732   2.50162
 Alpha virt. eigenvalues --    2.51700   2.61951   2.75936   2.88138   2.99336
 Alpha virt. eigenvalues --    3.09303   3.38083   3.55971   3.61485   3.82893
 Alpha virt. eigenvalues --    3.90464   3.92219   4.10480   4.34889   4.64453
 Alpha virt. eigenvalues --    5.20602  35.05043  35.43834  35.91025
  Beta  occ. eigenvalues --  -14.48064 -14.45871 -14.41029  -1.08487  -0.94200
  Beta  occ. eigenvalues --   -0.65869  -0.57232  -0.47078  -0.42327  -0.37686
  Beta  occ. eigenvalues --   -0.30734
  Beta virt. eigenvalues --   -0.03367   0.01609   0.03434   0.07912   0.19896
  Beta virt. eigenvalues --    0.33902   0.34818   0.45426   0.49775   0.52459
  Beta virt. eigenvalues --    0.59292   0.61287   0.65886   0.69353   0.71497
  Beta virt. eigenvalues --    0.73833   0.76782   0.80640   0.95871   1.12687
  Beta virt. eigenvalues --    1.27956   1.35044   1.49489   1.63954   1.66382
  Beta virt. eigenvalues --    1.71095   1.75589   1.78245   1.89306   1.96140
  Beta virt. eigenvalues --    2.11656   2.14674   2.25637   2.31659   2.38545
  Beta virt. eigenvalues --    2.50057   2.52487   2.62646   2.75803   2.88638
  Beta virt. eigenvalues --    2.99845   3.11526   3.38259   3.57113   3.67930
  Beta virt. eigenvalues --    3.83455   3.93703   3.97622   4.10277   4.36163
  Beta virt. eigenvalues --    4.63067   5.20722  35.06122  35.44224  35.92247
     Alpha Molecular Orbital Coefficients:
                           1         2         3         4         5
                           O         O         O         O         O
     Eigenvalues --   -14.48599 -14.46081 -14.42221  -1.10453  -0.96171
   1 1   N  1S          0.55750  -0.00265  -0.00348  -0.09748   0.01213
   2        2S          0.46490  -0.00212  -0.00238  -0.15135   0.01824
   3        2PX        -0.00061  -0.00054   0.00103   0.02531  -0.13946
   4        2PY         0.00086   0.00007   0.00023   0.03288  -0.01105
   5        2PZ        -0.00008  -0.00004   0.00003   0.00062  -0.00245
   6        3S          0.01707  -0.00028  -0.00211   0.42642  -0.04930
   7        3PX         0.00274   0.00148  -0.00474   0.02248  -0.19584
   8        3PY         0.00127  -0.00009  -0.00114   0.04860  -0.01229
   9        3PZ         0.00009   0.00010  -0.00012   0.00056  -0.00314
  10        4S         -0.00765   0.00133   0.00294   0.21844  -0.01453
  11        4PX         0.00045  -0.00403   0.00525  -0.00619  -0.03555
  12        4PY        -0.00144   0.00010   0.00061   0.02053  -0.00541
  13        4PZ        -0.00007  -0.00028   0.00017   0.00146  -0.00011
  14        5D 0       -0.00145   0.00038   0.00118  -0.01236  -0.00164
  15        5D+1        0.00017  -0.00010  -0.00009   0.00085  -0.00037
  16        5D-1        0.00002   0.00001  -0.00003   0.00001  -0.00019
  17        5D+2        0.00238  -0.00064  -0.00169   0.01640   0.00279
  18        5D-2        0.00077   0.00034  -0.00126   0.00239  -0.01060
  19 2   N  1S          0.00333  -0.00021   0.55734  -0.06444   0.06516
  20        2S          0.00337  -0.00014   0.46527  -0.09996   0.10187
  21        2PX        -0.00078  -0.00006  -0.00152  -0.07363   0.06216
  22        2PY        -0.00029   0.00004  -0.00032  -0.02008   0.02397
  23        2PZ        -0.00002  -0.00001  -0.00005  -0.00177   0.00163
  24        3S         -0.00221  -0.00014   0.01640   0.28228  -0.28999
  25        3PX         0.00409   0.00021  -0.00333  -0.10284   0.08571
  26        3PY         0.00142  -0.00013  -0.00104  -0.02618   0.03383
  27        3PZ         0.00009   0.00004  -0.00008  -0.00242   0.00228
  28        4S          0.00101   0.00240  -0.00967   0.11294  -0.16320
  29        4PX        -0.00115  -0.00080   0.00309  -0.01795   0.02984
  30        4PY         0.00008  -0.00054   0.00124  -0.00774   0.00992
  31        4PZ         0.00000  -0.00000   0.00006  -0.00064   0.00042
  32        5D 0        0.00129   0.00002  -0.00101  -0.00860   0.00755
  33        5D+1       -0.00009  -0.00003   0.00008   0.00068  -0.00061
  34        5D-1       -0.00003  -0.00001   0.00002   0.00016  -0.00023
  35        5D+2       -0.00167  -0.00019   0.00154   0.01231  -0.00827
  36        5D-2       -0.00141   0.00012   0.00095   0.00653  -0.00864
  37 3   N  1S          0.00263   0.55763   0.00019  -0.05481  -0.09107
  38        2S          0.00231   0.46491   0.00019  -0.08512  -0.14198
  39        2PX         0.00066   0.00080   0.00017   0.03818   0.01909
  40        2PY        -0.00021  -0.00013   0.00004  -0.00739  -0.01118
  41        2PZ        -0.00003   0.00086  -0.00002   0.01108   0.02346
  42        3S         -0.00021   0.01703  -0.00010   0.23775   0.39846
  43        3PX        -0.00199  -0.00103  -0.00054   0.06364   0.03855
  44        3PY         0.00065  -0.00007  -0.00006  -0.01015  -0.01780
  45        3PZ         0.00023   0.00109   0.00006   0.01638   0.03582
  46        4S          0.00280  -0.00717   0.00221   0.11009   0.26872
  47        4PX         0.00184  -0.00230   0.00134   0.00174   0.01476
  48        4PY         0.00062   0.00107  -0.00035  -0.00536  -0.00477
  49        4PZ         0.00027   0.00004   0.00000   0.00657   0.01724
  50        5D 0        0.00037  -0.00091   0.00003  -0.00610  -0.00737
  51        5D+1       -0.00023  -0.00050  -0.00003   0.00160  -0.00003
  52        5D-1        0.00015  -0.00005   0.00002  -0.00090  -0.00148
  53        5D+2       -0.00098  -0.00043  -0.00031   0.00764   0.00369
  54        5D-2        0.00061  -0.00002  -0.00017  -0.00186  -0.00406
  55 4   H  1S         -0.00016  -0.00012  -0.00008   0.02933   0.06802
  56        2S         -0.00039  -0.00218   0.00008   0.02647   0.06421
  57        3S          0.00063   0.00113   0.00029  -0.00872  -0.00601
  58        4PX        -0.00007  -0.00104   0.00007   0.00567   0.00857
  59        4PY        -0.00034  -0.00191  -0.00002   0.00590   0.01240
  60        4PZ         0.00006   0.00086   0.00000  -0.00228  -0.00513
  61 5   H  1S         -0.00007  -0.00002  -0.00001   0.02647   0.05975
  62        2S         -0.00146  -0.00262  -0.00031   0.02868   0.05462
  63        3S          0.00049   0.00106   0.00040  -0.00853  -0.00297
  64        4PX        -0.00036  -0.00049  -0.00006   0.00387   0.00460
  65        4PY         0.00050   0.00206   0.00010  -0.00709  -0.01334
  66        4PZ         0.00014   0.00074   0.00004  -0.00205  -0.00334
                           6         7         8         9        10
                           O         O         O         O         O
     Eigenvalues --    -0.67467  -0.58174  -0.48015  -0.46185  -0.41582
   1 1   N  1S         -0.05273   0.00208  -0.01244   0.03867   0.00200
   2        2S         -0.08403   0.00366  -0.01991   0.06214   0.00291
   3        2PX        -0.12239  -0.02242  -0.00148  -0.09763  -0.06313
   4        2PY        -0.01272   0.10559   0.00564   0.09718  -0.17029
   5        2PZ        -0.01594  -0.01321   0.20072   0.02900   0.01893
   6        3S          0.25319  -0.01181   0.06008  -0.19065  -0.01269
   7        3PX        -0.17685  -0.03771  -0.00319  -0.14239  -0.09058
   8        3PY        -0.01465   0.16127   0.00927   0.14524  -0.25246
   9        3PZ        -0.02558  -0.02053   0.30737   0.04415   0.02832
  10        4S          0.23804   0.01048   0.06331  -0.23242  -0.01730
  11        4PX        -0.08699   0.02019   0.01798  -0.08104  -0.04247
  12        4PY        -0.00875   0.11155   0.00765   0.10623  -0.21623
  13        4PZ        -0.00638  -0.01187   0.23075   0.03623   0.02720
  14        5D 0       -0.00259  -0.00228   0.00011  -0.00426   0.00486
  15        5D+1        0.00289   0.00117   0.00279   0.00134   0.00314
  16        5D-1       -0.00134  -0.00079   0.01373   0.00211   0.00106
  17        5D+2        0.00556  -0.01580  -0.00135  -0.00728   0.01639
  18        5D-2       -0.00388  -0.01237  -0.00137   0.00700  -0.02032
  19 2   N  1S          0.04240   0.00859   0.01720  -0.06613  -0.03578
  20        2S          0.06732   0.01329   0.02744  -0.10545  -0.05712
  21        2PX         0.00594  -0.01706  -0.03443   0.12096   0.17463
  22        2PY         0.00886   0.04672  -0.00691   0.14121  -0.10567
  23        2PZ        -0.00398  -0.00570   0.12931   0.02559   0.02349
  24        3S         -0.19698  -0.03742  -0.07909   0.29968   0.15871
  25        3PX         0.00953  -0.02783  -0.04714   0.16059   0.24638
  26        3PY         0.01379   0.06981  -0.00863   0.20549  -0.16199
  27        3PZ        -0.00632  -0.00930   0.19819   0.03846   0.03503
  28        4S         -0.15987  -0.08015  -0.12339   0.45467   0.29874
  29        4PX         0.00627   0.00479  -0.01981   0.08099   0.15192
  30        4PY         0.00271   0.03910  -0.00293   0.13305  -0.11962
  31        4PZ        -0.00455  -0.00305   0.11968   0.02400   0.02401
  32        5D 0        0.00193  -0.00171  -0.00304   0.00812   0.00870
  33        5D+1        0.00161   0.00189  -0.03019  -0.00538  -0.00462
  34        5D-1        0.00041   0.00022  -0.00824  -0.00199  -0.00067
  35        5D+2       -0.00036   0.00876   0.00419  -0.00349  -0.02622
  36        5D-2       -0.00270  -0.00996   0.00142  -0.02625   0.01577
  37 3   N  1S          0.03893  -0.00069   0.01726  -0.00403  -0.00194
  38        2S          0.06105  -0.00123   0.02766  -0.00659  -0.00298
  39        2PX         0.16385   0.07099   0.01495   0.05167   0.04356
  40        2PY        -0.06173   0.19480   0.01586  -0.05973   0.07277
  41        2PZ        -0.03836  -0.02106   0.12877   0.01640  -0.00523
  42        3S         -0.16646   0.00548  -0.08562   0.02382   0.00759
  43        3PX         0.24263   0.11009   0.01884   0.08131   0.06054
  44        3PY        -0.08982   0.28580   0.02330  -0.08645   0.10318
  45        3PZ        -0.05713  -0.03155   0.19799   0.02616  -0.00597
  46        4S         -0.19508   0.01464  -0.06159   0.01942   0.04033
  47        4PX         0.10836   0.06907   0.03092   0.05879   0.06607
  48        4PY        -0.04088   0.16708   0.00583  -0.05062   0.07189
  49        4PZ        -0.03503  -0.01870   0.16198   0.02061  -0.00360
  50        5D 0       -0.00507  -0.00300   0.00853  -0.00041  -0.00086
  51        5D+1        0.00891   0.00388   0.01997   0.00588   0.00364
  52        5D-1       -0.00288   0.01578  -0.00323  -0.00478   0.00580
  53        5D+2        0.01756   0.00823  -0.00059   0.00722  -0.00480
  54        5D-2       -0.00945   0.00166   0.00069   0.00512  -0.01564
  55 4   H  1S         -0.07449  -0.14683   0.00162   0.02598  -0.07682
  56        2S         -0.08046  -0.18542  -0.01553   0.04212  -0.12180
  57        3S         -0.01707  -0.04095   0.00165   0.00608  -0.04279
  58        4PX         0.00455  -0.01076   0.00115   0.00558  -0.00235
  59        4PY        -0.01352  -0.00860   0.00039   0.00102  -0.00620
  60        4PZ         0.00184   0.00775   0.01097  -0.00143   0.00450
  61 5   H  1S         -0.11886   0.10638   0.01665  -0.05645   0.05535
  62        2S         -0.14040   0.13999   0.01567  -0.09278   0.08473
  63        3S         -0.02505   0.03139   0.00983  -0.02386   0.04058
  64        4PX         0.00128   0.01183   0.00232   0.00076   0.00364
  65        4PY         0.01860  -0.00898  -0.00236   0.00496  -0.00205
  66        4PZ         0.00474  -0.00771   0.00806   0.00405  -0.00290
                          11        12        13        14        15
                           O         O         V         V         V
     Eigenvalues --    -0.31567  -0.17093   0.00216   0.02801   0.07401
   1 1   N  1S         -0.00499  -0.02920  -0.00009  -0.00090   0.00294
   2        2S         -0.00820  -0.04710   0.00021  -0.00173   0.00441
   3        2PX        -0.01556  -0.02667  -0.00012  -0.02024  -0.01153
   4        2PY        -0.00604  -0.17594  -0.01867   0.05526   0.02835
   5        2PZ        -0.07003  -0.00297   0.21753   0.07461   0.02022
   6        3S          0.02834   0.12598  -0.00895   0.00827  -0.00360
   7        3PX        -0.02421  -0.02926   0.01281  -0.05929  -0.01622
   8        3PY        -0.00807  -0.25643  -0.02706   0.08257   0.04880
   9        3PZ        -0.10433  -0.00377   0.32631   0.11243   0.02988
  10        4S         -0.00333   0.35582   0.08294  -0.06863  -0.11370
  11        4PX         0.03032  -0.13236  -0.15351   0.18305  -0.01306
  12        4PY        -0.01449  -0.34140  -0.04890   0.12902   0.08207
  13        4PZ        -0.10425  -0.00727   0.51187   0.19004   0.05693
  14        5D 0       -0.00188   0.01206  -0.00089   0.00489  -0.00350
  15        5D+1       -0.04085  -0.00045  -0.02306  -0.00385   0.00011
  16        5D-1       -0.00419   0.00117  -0.00339  -0.00374   0.00292
  17        5D+2        0.00054  -0.01930   0.00350  -0.01247   0.01122
  18        5D-2       -0.00182   0.02885   0.00214  -0.00675   0.00637
  19 2   N  1S         -0.00066   0.00895  -0.00147   0.00652  -0.00213
  20        2S         -0.00107   0.01553  -0.00224   0.01058  -0.00354
  21        2PX         0.01854  -0.01617  -0.00273   0.03615  -0.00827
  22        2PY         0.00065   0.23745   0.01838  -0.04510  -0.04176
  23        2PZ        -0.16331   0.00137  -0.21075  -0.07059  -0.01876
  24        3S          0.00223  -0.06884   0.00711  -0.04176   0.01629
  25        3PX         0.02617  -0.02185  -0.00292   0.04825  -0.01223
  26        3PY         0.00116   0.34441   0.02639  -0.06432  -0.06191
  27        3PZ        -0.24381   0.00177  -0.29700  -0.10054  -0.02636
  28        4S         -0.00835   0.08395   0.10089  -0.16663   0.00951
  29        4PX         0.02728  -0.10002  -0.03904   0.12108  -0.00636
  30        4PY         0.00617   0.41927   0.02204  -0.07937  -0.08885
  31        4PZ        -0.21524   0.00151  -0.50695  -0.17145  -0.04885
  32        5D 0        0.00151   0.00176  -0.00002  -0.00126   0.00086
  33        5D+1        0.02188  -0.00010  -0.00822  -0.00331  -0.00168
  34        5D-1        0.00633   0.00002  -0.00394  -0.00185   0.00036
  35        5D+2       -0.00145  -0.00175  -0.00109   0.00417  -0.00083
  36        5D-2       -0.00081  -0.00730   0.00098  -0.00303  -0.00311
  37 3   N  1S          0.02324   0.02761  -0.02359   0.04272   0.00868
  38        2S          0.03746   0.04470  -0.03753   0.06731   0.01363
  39        2PX         0.03222  -0.07571  -0.03974   0.04843   0.00339
  40        2PY         0.00926   0.02376   0.00667   0.02027  -0.16398
  41        2PZ         0.22810  -0.01506  -0.07658  -0.08407  -0.01419
  42        3S         -0.11671  -0.13794   0.10021  -0.17061  -0.03158
  43        3PX         0.04412  -0.12895  -0.05250   0.04441   0.01458
  44        3PY         0.01378   0.03182   0.00964   0.02117  -0.18250
  45        3PZ         0.33624  -0.02512  -0.09942  -0.12084  -0.02444
  46        4S         -0.10563  -0.38446   0.34688  -0.83252  -0.20766
  47        4PX         0.07594  -0.12859  -0.19645   0.32194  -0.01870
  48        4PY         0.00598   0.00861   0.06986   0.06862  -0.71026
  49        4PZ         0.39115  -0.04698  -0.19186  -0.24532  -0.03512
  50        5D 0        0.01104  -0.00297  -0.00013  -0.00538  -0.00208
  51        5D+1        0.00439  -0.00319   0.02398   0.00810   0.00331
  52        5D-1       -0.00044   0.00330  -0.00469  -0.00327  -0.00028
  53        5D+2       -0.00045  -0.00716  -0.00066   0.00166  -0.00402
  54        5D-2       -0.00124  -0.02299  -0.00292   0.01007  -0.01234
  55 4   H  1S          0.02777  -0.02474  -0.04714   0.05704  -0.02663
  56        2S          0.01740  -0.05421  -0.06233   0.02242   0.01882
  57        3S          0.01916   0.03319  -0.31334   1.18181  -1.23783
  58        4PX         0.00444  -0.00230   0.00789  -0.01448   0.01048
  59        4PY         0.00407  -0.00087  -0.00144  -0.01588   0.01170
  60        4PZ         0.01976   0.00016  -0.01171   0.00146  -0.01106
  61 5   H  1S          0.03393   0.06394  -0.03343   0.01439   0.04079
  62        2S          0.03234   0.15247  -0.10240  -0.00006   0.04774
  63        3S          0.02418   0.22010  -0.27832   0.52742   1.57729
  64        4PX         0.00251  -0.00714   0.00123  -0.00610  -0.00921
  65        4PY        -0.00337  -0.00272   0.00174   0.01197   0.02410
  66        4PZ         0.01778  -0.00264  -0.01255  -0.00488   0.00827
                          16        17        18        19        20
                           V         V         V         V         V
     Eigenvalues --     0.18825   0.33721   0.34747   0.45096   0.49427
   1 1   N  1S         -0.06823  -0.00707   0.01585   0.01837  -0.03443
   2        2S         -0.11147  -0.00839   0.02695   0.02834  -0.06728
   3        2PX        -0.12351   0.04848   0.05129  -0.15984   0.05931
   4        2PY         0.11149  -0.04769  -0.05617  -0.05125  -0.07384
   5        2PZ        -0.01617   0.00607  -0.03320  -0.00025   0.02137
   6        3S          0.31567  -0.05867  -0.10544  -0.03383   0.48333
   7        3PX        -0.20422   0.08770   0.02377  -0.26891   0.05238
   8        3PY         0.17975  -0.08635  -0.10821  -0.07078  -0.17345
   9        3PZ        -0.01644   0.00229  -0.05771   0.02089   0.06542
  10        4S          2.01993   0.36492  -0.13017  -1.96887   1.70176
  11        4PX        -0.56050   0.28448   1.17041  -3.57728   0.34425
  12        4PY         0.53820  -0.25436  -0.06595  -0.64466   0.45987
  13        4PZ        -0.11143   0.11984  -0.12454  -0.13440  -0.09534
  14        5D 0        0.02080   0.01341   0.01147  -0.01804  -0.02964
  15        5D+1       -0.00401  -0.00279  -0.00919  -0.00475   0.00778
  16        5D-1        0.00111  -0.01247   0.00257  -0.00779  -0.00279
  17        5D+2       -0.03327  -0.03396   0.00306   0.02030   0.04490
  18        5D-2       -0.00769  -0.02602  -0.01857  -0.00297  -0.01911
  19 2   N  1S          0.02668   0.02950   0.00923  -0.05019  -0.00997
  20        2S          0.04429   0.05214   0.01616  -0.08285  -0.02560
  21        2PX         0.12679   0.07173  -0.00446  -0.04319  -0.06740
  22        2PY        -0.02825   0.00394   0.00634  -0.00286   0.02911
  23        2PZ         0.01162   0.00769   0.00585   0.01215   0.00247
  24        3S         -0.15728  -0.25324  -0.08108   0.21633   0.31108
  25        3PX         0.18226   0.12348   0.01160   0.01392  -0.28352
  26        3PY        -0.02144  -0.04109  -0.01261   0.04794   0.00277
  27        3PZ         0.01440   0.02929  -0.00806   0.04489   0.01568
  28        4S         -0.39234  -0.21067  -0.77051   3.93107  -1.47826
  29        4PX         0.49285   0.15692   0.26283  -2.50934   1.30394
  30        4PY        -0.19680   0.25655   0.29018  -0.94534   0.30297
  31        4PZ         0.05961  -0.06364   0.10537  -0.09883   0.01919
  32        5D 0        0.00225  -0.00742  -0.00211   0.00584  -0.01137
  33        5D+1        0.00078   0.00030   0.00525  -0.00191  -0.00525
  34        5D-1        0.00052  -0.00154   0.00431  -0.00175  -0.00020
  35        5D+2        0.01105  -0.00169  -0.00770  -0.01144   0.00070
  36        5D-2       -0.01000   0.00768   0.00697  -0.00720   0.03983
  37 3   N  1S          0.03938   0.01512  -0.04285   0.01081  -0.00689
  38        2S          0.06427   0.02803  -0.07175   0.01469  -0.01724
  39        2PX        -0.20636  -0.01232  -0.01751   0.03612   0.16983
  40        2PY         0.01783   0.09783   0.03613   0.05783   0.05764
  41        2PZ         0.00991  -0.01859   0.05508   0.03089  -0.00315
  42        3S         -0.18827  -0.14180   0.17601   0.06496   0.18927
  43        3PX        -0.26555  -0.08610  -0.07183   0.19230   0.59441
  44        3PY         0.02860   0.23016   0.08979   0.08684   0.11370
  45        3PZ         0.01159  -0.03667   0.13044   0.08905  -0.00636
  46        4S         -0.89588  -0.04816   1.82343  -2.07359  -0.50501
  47        4PX        -1.28458   0.63858   0.06145  -1.48366  -1.16571
  48        4PY         0.16580   0.89877   0.05745   1.36646   0.00519
  49        4PZ         0.05724  -0.23052   0.49614  -0.23733  -0.00325
  50        5D 0       -0.01205  -0.00195   0.02129  -0.00596  -0.00877
  51        5D+1       -0.00863  -0.00227  -0.00580   0.00641   0.00039
  52        5D-1        0.00203  -0.00813  -0.00380  -0.00263  -0.01519
  53        5D+2        0.03588  -0.00898   0.00705   0.01048   0.01366
  54        5D-2       -0.00212   0.02261   0.01116  -0.02933  -0.00387
  55 4   H  1S         -0.00077   0.11938  -0.06735   0.00784   0.03390
  56        2S         -0.07774   1.68123  -1.08264   0.80725   0.31329
  57        3S         -0.24601  -0.90162   0.31106  -0.33352  -0.38216
  58        4PX        -0.02874   0.00879  -0.04067   0.03732  -0.02699
  59        4PY         0.01655   0.02384   0.01498   0.02428  -0.01576
  60        4PZ        -0.00318   0.00471   0.03537   0.00867   0.02641
  61 5   H  1S         -0.01049  -0.05226  -0.13112  -0.01321  -0.01757
  62        2S         -0.15811  -0.71657  -1.69442  -0.67066  -0.16472
  63        3S         -0.15685   0.48067   0.86492   0.00781   0.17063
  64        4PX        -0.02787   0.02061  -0.01729  -0.02524   0.01287
  65        4PY        -0.00641   0.03075   0.00950   0.01464  -0.00158
  66        4PZ         0.00049  -0.02007   0.02366  -0.02098  -0.01942
                          21        22        23        24        25
                           V         V         V         V         V
     Eigenvalues --     0.52313   0.58258   0.60998   0.65513   0.68599
   1 1   N  1S         -0.00562  -0.01889   0.00133   0.01687  -0.00414
   2        2S         -0.01159  -0.03566   0.00180   0.03264  -0.00497
   3        2PX        -0.02817  -0.03029  -0.02027   0.01717   0.01345
   4        2PY        -0.02450  -0.11692  -0.00023  -0.04726  -0.12599
   5        2PZ        -0.10697   0.02135   0.07276  -0.01872   0.09295
   6        3S          0.09482   0.22414   0.00109  -0.21209  -0.06888
   7        3PX        -0.05638  -0.04363  -0.09169  -0.19008  -0.03357
   8        3PY        -0.06987  -0.48421   0.01787  -0.15073  -0.45701
   9        3PZ        -0.41943   0.08235   0.28444  -0.07533   0.30671
  10        4S         -0.34982  -0.32140  -0.33001   0.68872   0.29345
  11        4PX        -0.05137   0.26859   0.81548   0.48123   1.58157
  12        4PY         0.02782   0.70381   0.00084   0.01653   1.48876
  13        4PZ         0.36103  -0.13787  -0.56824   0.16695  -0.65162
  14        5D 0        0.00156   0.01299   0.00946  -0.00401   0.02482
  15        5D+1        0.00528   0.00976   0.05883   0.00357  -0.00860
  16        5D-1       -0.01721   0.00652   0.01422  -0.01393   0.01920
  17        5D+2        0.00407   0.02982  -0.00986   0.01191  -0.01265
  18        5D-2       -0.00034  -0.01321  -0.00066  -0.00661  -0.00174
  19 2   N  1S         -0.01077  -0.01158  -0.00207   0.04088   0.00228
  20        2S         -0.01937  -0.02161  -0.00357   0.07851   0.00429
  21        2PX        -0.00252   0.04986  -0.01058  -0.04284   0.02663
  22        2PY         0.00141  -0.16406   0.04213   0.05738   0.12754
  23        2PZ        -0.10003   0.02413   0.14733   0.01144  -0.08818
  24        3S          0.08775   0.10987   0.00349  -0.53665  -0.04036
  25        3PX         0.01870   0.19806  -0.00685  -0.15174   0.14365
  26        3PY         0.00591  -0.56912   0.14834   0.15889   0.44252
  27        3PZ        -0.37324   0.08660   0.51908   0.03891  -0.30079
  28        4S          0.15640  -0.24454  -0.42512   0.05237  -1.46061
  29        4PX        -0.22523  -0.28477   0.08152   0.23837   0.43278
  30        4PY        -0.06731   0.68651  -0.12182  -0.13532  -0.77673
  31        4PZ         0.43399  -0.08941  -0.61164  -0.09814   0.66322
  32        5D 0        0.00133   0.00082  -0.00037  -0.00478   0.01322
  33        5D+1        0.02983  -0.00755  -0.03418   0.00233  -0.00265
  34        5D-1        0.01327  -0.00070  -0.00394  -0.00297   0.00261
  35        5D+2       -0.00321  -0.02057   0.00025  -0.01114  -0.00784
  36        5D-2        0.00254   0.03845  -0.00727   0.00317  -0.00487
  37 3   N  1S         -0.00495   0.00984  -0.00899  -0.00512   0.00605
  38        2S         -0.00919   0.01823  -0.01531  -0.01061   0.01270
  39        2PX        -0.00088  -0.02919  -0.00688   0.05601   0.02029
  40        2PY         0.01670  -0.05441   0.01560  -0.21755   0.02508
  41        2PZ        -0.17376  -0.01533  -0.15159   0.00086   0.00792
  42        3S          0.02541  -0.12356   0.01490   0.09977  -0.14507
  43        3PX         0.00925  -0.05374  -0.04047   0.17139   0.00892
  44        3PY         0.02314  -0.18146   0.04618  -0.64128   0.08158
  45        3PZ        -0.60175  -0.04427  -0.52962  -0.00303   0.05716
  46        4S          0.30946   0.31141   0.95574  -0.00843   0.97942
  47        4PX        -0.11149   0.08496   0.28711  -0.24146   0.40265
  48        4PY         0.00601  -0.12117  -0.30822   1.75690  -1.42333
  49        4PZ         0.81813   0.13288   1.10278  -0.08061   0.15968
  50        5D 0       -0.02052  -0.01402  -0.00842  -0.00288   0.00689
  51        5D+1       -0.03102  -0.00265  -0.03055  -0.00261  -0.00437
  52        5D-1        0.00056   0.00825   0.00011   0.01590   0.00902
  53        5D+2        0.00477   0.00274   0.00575  -0.02120  -0.00729
  54        5D-2       -0.00284  -0.01725   0.00865  -0.04519   0.05300
  55 4   H  1S          0.01720  -0.01687   0.01114  -0.01714   0.04436
  56        2S         -0.04425  -0.30172  -0.32303   0.37908  -0.57438
  57        3S         -0.20500   0.42845  -0.09275   0.69153   0.01986
  58        4PX        -0.03805  -0.04620  -0.07374   0.06161  -0.15673
  59        4PY        -0.02911   0.00586  -0.01291   0.09498  -0.03956
  60        4PZ         0.00987  -0.01972   0.02626  -0.03249  -0.02378
  61 5   H  1S         -0.00018   0.01984  -0.00615   0.03134  -0.00921
  62        2S         -0.14989   0.28937  -0.20197  -0.22681   0.52581
  63        3S         -0.06324  -0.49203   0.11954  -0.94412   0.10207
  64        4PX        -0.01088   0.01378  -0.03338  -0.04851   0.09071
  65        4PY         0.02251   0.01294   0.00602   0.11458  -0.02574
  66        4PZ        -0.00521   0.02659   0.02970   0.01991   0.06480
                          26        27        28        29        30
                           V         V         V         V         V
     Eigenvalues --     0.70224   0.73023   0.76184   0.80319   0.95446
   1 1   N  1S          0.03831  -0.01666   0.03787  -0.03911  -0.00658
   2        2S          0.07277  -0.03336   0.07718  -0.07744  -0.01782
   3        2PX        -0.11942   0.13491   0.12922  -0.01503  -0.21539
   4        2PY         0.04373   0.09364   0.02480   0.04373   0.01438
   5        2PZ         0.09327   0.11494  -0.06366  -0.04353  -0.02074
   6        3S         -0.42324   0.21001  -0.66343   0.54248   0.26980
   7        3PX        -0.46992   0.30645   0.24022  -0.42194  -0.40427
   8        3PY         0.16893   0.34994   0.07624   0.14613   0.10929
   9        3PZ         0.31341   0.39698  -0.23228  -0.18271  -0.06396
  10        4S          0.18439  -0.01235   1.54301  -0.39416  -0.59361
  11        4PX         1.42634   0.00655   0.80093   4.20140   4.80092
  12        4PY        -0.43788  -0.94027   0.33852  -0.06978  -0.40648
  13        4PZ        -0.75401  -1.00990   0.55285   0.70188   0.29691
  14        5D 0       -0.00446  -0.01013   0.02540  -0.01237  -0.00795
  15        5D+1       -0.00398  -0.00998   0.01297   0.01947   0.00178
  16        5D-1        0.00745  -0.00184   0.01085  -0.00065   0.01082
  17        5D+2        0.00047  -0.00248  -0.01157  -0.00235   0.00367
  18        5D-2       -0.03130  -0.03020  -0.05292  -0.07633   0.04775
  19 2   N  1S          0.04201  -0.02221   0.02826  -0.00277  -0.05727
  20        2S          0.08352  -0.04586   0.05456  -0.00938  -0.11209
  21        2PX        -0.11973   0.17280   0.10586   0.10329  -0.11703
  22        2PY        -0.10857   0.01959   0.00625   0.03473  -0.01041
  23        2PZ        -0.08153  -0.07756   0.04928   0.02341  -0.00078
  24        3S         -0.65170   0.40381  -0.34230   0.09668   0.81087
  25        3PX        -0.27822   0.48043   0.40200   0.34029  -0.15129
  26        3PY        -0.34542  -0.00266   0.00239   0.03983  -0.00640
  27        3PZ        -0.27778  -0.27580   0.17038   0.09533   0.00511
  28        4S         -0.04297  -0.46126  -0.87494  -3.02711  -4.09855
  29        4PX         0.17228  -0.40097   0.00317   0.55027   1.50620
  30        4PY         0.74924   0.44216   0.23273   0.75368   0.95714
  31        4PZ         0.64514   0.74297  -0.41771  -0.33180  -0.03309
  32        5D 0        0.01477  -0.02289   0.01890  -0.01756   0.00791
  33        5D+1       -0.00356   0.00293  -0.00393  -0.00814  -0.00324
  34        5D-1        0.00309   0.00441   0.00097  -0.00598  -0.00216
  35        5D+2       -0.03312   0.01583  -0.02432  -0.00524  -0.05779
  36        5D-2       -0.00972   0.02997   0.01075   0.04716  -0.00716
  37 3   N  1S          0.00102  -0.00303   0.03906  -0.05196   0.07662
  38        2S          0.00113  -0.00464   0.07707  -0.10193   0.15061
  39        2PX         0.02840   0.05891   0.17997  -0.02320  -0.06409
  40        2PY         0.05621  -0.09336   0.00818   0.01302  -0.01085
  41        2PZ        -0.02385  -0.03022  -0.00824   0.04489  -0.00880
  42        3S          0.00383  -0.04022  -0.65009   0.76291  -1.32277
  43        3PX         0.10520   0.16187   0.42175   0.13161  -0.16833
  44        3PY         0.17109  -0.24620   0.11075   0.06631  -0.07785
  45        3PZ        -0.07150  -0.10447   0.06274   0.11906   0.13551
  46        4S          0.91534   0.56721   1.76653   1.09017   5.89688
  47        4PX         0.12040  -0.17708  -1.00885   1.58281   1.95239
  48        4PY        -0.52703   1.07949  -0.98761  -1.20408  -0.48839
  49        4PZ         0.38453   0.53097   0.07406  -0.46191   0.23382
  50        5D 0       -0.01947   0.00300   0.01065  -0.04298  -0.01908
  51        5D+1       -0.00938  -0.01181  -0.02060   0.01748  -0.02776
  52        5D-1        0.00622   0.00540   0.02174   0.01935   0.01123
  53        5D+2        0.00814  -0.00764  -0.05490   0.08683   0.01204
  54        5D-2        0.01189   0.00570   0.08651   0.03704   0.00962
  55 4   H  1S          0.01769   0.00795   0.04182   0.03322   0.05680
  56        2S         -0.10435   0.06984  -0.74873   0.02639  -0.69859
  57        3S         -0.27933   0.11501  -0.71002   0.31440  -0.07889
  58        4PX        -0.07257   0.01528  -0.09331  -0.09295  -0.22259
  59        4PY        -0.02793   0.02949  -0.16976   0.08276  -0.08890
  60        4PZ        -0.00364   0.02328   0.02920  -0.13707   0.10705
  61 5   H  1S          0.02214   0.00198   0.01835  -0.00095   0.01982
  62        2S          0.07232  -0.51897   0.18065   0.72676  -0.55167
  63        3S          0.10553  -0.30424  -0.30460   0.51340  -0.14526
  64        4PX        -0.04923  -0.07764   0.01938   0.03463   0.01185
  65        4PY        -0.02486   0.07522   0.08130  -0.11019   0.17901
  66        4PZ         0.00937   0.02816   0.10313  -0.02360   0.16744
                          31        32        33        34        35
                           V         V         V         V         V
     Eigenvalues --     1.12602   1.28087   1.35430   1.50239   1.63850
   1 1   N  1S          0.08029  -0.02576  -0.01670   0.00260   0.00604
   2        2S          0.15893  -0.05114  -0.03393   0.00448   0.01050
   3        2PX        -0.08850   0.02013   0.06538  -0.02009   0.02691
   4        2PY        -0.05387   0.02836   0.01711  -0.02458  -0.03854
   5        2PZ        -0.00242  -0.00703   0.00722   0.00534  -0.00307
   6        3S         -1.40785   0.48904   0.37446  -0.02553  -0.02818
   7        3PX         0.04496   0.05838   0.21404  -0.03527   0.11822
   8        3PY        -0.01533   0.08355   0.07894  -0.03293  -0.01041
   9        3PZ        -0.00454   0.06998  -0.06476   0.01061   0.01499
  10        4S          6.40110  -2.35235  -2.71080   0.43450  -0.95465
  11        4PX         0.58383  -2.21184  -4.11573   0.39173  -1.37538
  12        4PY         0.98633  -0.84985  -1.02738  -0.11310  -0.14848
  13        4PZ         0.01764  -0.46938   0.20976  -0.00386   0.18438
  14        5D 0       -0.09409  -0.07521  -0.02993  -0.09385  -0.01687
  15        5D+1        0.02006  -0.18919   0.24467  -0.00682  -0.36139
  16        5D-1        0.01458   0.09387  -0.04973  -0.06995  -0.16666
  17        5D+2        0.11713  -0.10029  -0.11027  -0.00768   0.00792
  18        5D-2        0.05805  -0.03853  -0.02951  -0.02008  -0.19603
  19 2   N  1S         -0.06466   0.01909   0.02181  -0.01042   0.00164
  20        2S         -0.12574   0.03852   0.04453  -0.02048   0.00264
  21        2PX        -0.10996   0.00581   0.00260  -0.01920  -0.02619
  22        2PY        -0.05317   0.00485  -0.00826   0.01413   0.01962
  23        2PZ        -0.00127   0.03260  -0.03475  -0.00001   0.06072
  24        3S          1.06224  -0.36880  -0.43813   0.18281  -0.06384
  25        3PX         0.02529  -0.10381  -0.14831  -0.02009  -0.11027
  26        3PY        -0.02820  -0.03587  -0.05582   0.02797   0.00803
  27        3PZ         0.00391   0.03720  -0.05227   0.00018   0.08468
  28        4S         -4.21952   3.15728   4.77365  -0.67182   1.49754
  29        4PX         2.04732  -1.29778  -1.85702   0.31687  -0.53729
  30        4PY         0.45123  -0.33804  -0.63622   0.09128  -0.26710
  31        4PZ         0.03374   0.11414  -0.16733   0.02722  -0.10408
  32        5D 0        0.08472  -0.04834  -0.05508  -0.05639  -0.00482
  33        5D+1       -0.01007   0.08731  -0.10767   0.02855   0.28601
  34        5D-1       -0.00129   0.06947  -0.07667  -0.02138   0.03585
  35        5D+2       -0.07912   0.01343   0.04798  -0.03933  -0.07206
  36        5D-2       -0.08888   0.01713  -0.01100   0.00398   0.07441
  37 3   N  1S         -0.02735   0.01368  -0.00552   0.00459  -0.01792
  38        2S         -0.05542   0.02906  -0.01140   0.00897  -0.03563
  39        2PX         0.01066  -0.02882   0.00802  -0.00903  -0.01807
  40        2PY        -0.02020  -0.01068  -0.01655  -0.00215   0.02102
  41        2PZ         0.01400  -0.01965   0.02431  -0.00018  -0.01985
  42        3S          0.63098  -0.28261   0.15506  -0.06057   0.25581
  43        3PX         0.00632   0.01515  -0.00898  -0.04722  -0.14443
  44        3PY        -0.03147  -0.06337  -0.05914  -0.17463   0.17526
  45        3PZ        -0.05263  -0.05809   0.00521   0.00878   0.05614
  46        4S         -2.85959   0.06968  -2.34414   0.20231  -1.21543
  47        4PX        -1.03816  -0.66435  -0.50009   0.22613   0.41061
  48        4PY         0.12124   0.93342   1.26572   1.06104  -0.05948
  49        4PZ        -0.16318   0.58494  -0.49665  -0.03237  -0.46258
  50        5D 0       -0.01896  -0.12759   0.03071  -0.02437   0.18067
  51        5D+1        0.01521   0.25217  -0.21472  -0.00443   0.18197
  52        5D-1        0.05226   0.07804   0.18039   0.05195  -0.07691
  53        5D+2        0.00595  -0.05487   0.09764  -0.00274   0.25967
  54        5D-2        0.09392   0.10779   0.07931  -0.07254   0.13323
  55 4   H  1S          0.00295  -0.01968  -0.02286  -0.07017  -0.13359
  56        2S          0.46043  -0.12936   0.75457   0.61651   0.56550
  57        3S         -0.02981  -0.02389  -0.02947   0.00419  -0.00946
  58        4PX        -0.11813  -0.03558  -0.33926   0.31678  -0.23438
  59        4PY         0.10954  -0.20426   0.26232  -0.55526   0.15490
  60        4PZ        -0.27642  -0.57279  -0.12308  -0.35510   0.00981
  61 5   H  1S         -0.06761  -0.02876  -0.03567   0.05753  -0.40956
  62        2S          0.49373  -0.71695  -0.10265  -0.61392   1.02055
  63        3S         -0.02469  -0.12444  -0.10458   0.00072  -0.27787
  64        4PX         0.17364   0.42671   0.15024  -0.46080  -0.38599
  65        4PY        -0.05713   0.16379  -0.15556  -0.46855   0.15774
  66        4PZ         0.00561  -0.04240   0.56857   0.40082   0.23343
                          36        37        38        39        40
                           V         V         V         V         V
     Eigenvalues --     1.66450   1.70116   1.73820   1.76950   1.88252
   1 1   N  1S         -0.00268   0.00464   0.00062   0.00462   0.00996
   2        2S         -0.00330   0.00845   0.00170   0.00845   0.02092
   3        2PX        -0.01735   0.06575  -0.03613   0.05980  -0.00986
   4        2PY         0.03611   0.05265  -0.06472  -0.00737   0.02226
   5        2PZ         0.01811  -0.03984  -0.03728   0.00990  -0.03692
   6        3S         -0.09650  -0.02268  -0.07859  -0.04631  -0.22122
   7        3PX        -0.15557   0.09654  -0.08242  -0.00101   0.03126
   8        3PY         0.02683   0.03969  -0.04486  -0.05590  -0.00720
   9        3PZ         0.02254  -0.03803  -0.03632   0.00439   0.00670
  10        4S          2.01978  -0.73698   1.17956  -0.16643   1.19946
  11        4PX         0.09973  -0.31506  -0.06089   1.81199  -0.36568
  12        4PY         0.17462  -0.34922   0.32072   0.10064   0.30182
  13        4PZ         0.10906   0.12194   0.07696   0.14523  -0.27039
  14        5D 0        0.08949   0.17036  -0.30723  -0.41290  -0.08317
  15        5D+1       -0.20637  -0.07706  -0.00534  -0.08748   0.26022
  16        5D-1       -0.15398   0.45289   0.44188  -0.13165  -0.07558
  17        5D+2        0.07311   0.18743  -0.24372  -0.25221   0.02350
  18        5D-2        0.23086   0.07183  -0.08113   0.17898  -0.15024
  19 2   N  1S         -0.00012   0.00646  -0.00588   0.00243  -0.00052
  20        2S          0.00011   0.01432  -0.01303   0.00569  -0.00135
  21        2PX         0.03250   0.00812   0.00215   0.03615  -0.00272
  22        2PY        -0.04056   0.01583  -0.02930  -0.02869   0.02373
  23        2PZ         0.03468  -0.00755  -0.02439   0.02822  -0.04586
  24        3S          0.04355  -0.11065   0.11128  -0.01130   0.02656
  25        3PX         0.09916   0.04538  -0.02508   0.12919   0.01163
  26        3PY        -0.03647   0.03742  -0.04620  -0.01085   0.02947
  27        3PZ         0.05020  -0.00881  -0.02794   0.03606  -0.05851
  28        4S         -0.87784   0.60212  -0.49876  -1.39347  -0.22641
  29        4PX         0.35404  -0.28052   0.26095   0.44487   0.15944
  30        4PY         0.16619  -0.06184   0.04763   0.25545  -0.07490
  31        4PZ        -0.02691  -0.04996  -0.00012  -0.04748   0.15562
  32        5D 0        0.12664   0.08356  -0.21944  -0.39742  -0.12254
  33        5D+1        0.20270  -0.15921  -0.23241   0.17742  -0.14812
  34        5D-1       -0.02181   0.28674   0.29600  -0.07220  -0.45817
  35        5D+2        0.13960   0.06096  -0.05161  -0.02473  -0.16250
  36        5D-2       -0.10381   0.08123  -0.20601  -0.32415   0.10566
  37 3   N  1S         -0.03198  -0.01092  -0.02062   0.00369  -0.01216
  38        2S         -0.06818  -0.02142  -0.04409   0.01073  -0.01947
  39        2PX        -0.01751   0.01087  -0.02826   0.06476  -0.11291
  40        2PY        -0.01585  -0.06015   0.03406  -0.06084  -0.04114
  41        2PZ        -0.06282   0.01779  -0.03059   0.00918   0.07501
  42        3S          0.66797   0.10885   0.41465  -0.19652   0.10744
  43        3PX         0.06857  -0.12095  -0.01432   0.05044  -0.06477
  44        3PY        -0.08983  -0.23664   0.05058   0.00419  -0.01323
  45        3PZ        -0.00789   0.07781   0.01540   0.01848  -0.01733
  46        4S         -1.61756  -0.09913  -1.01490   1.56104  -0.88302
  47        4PX        -0.95352   0.62106  -0.56235   0.96296  -0.61389
  48        4PY         0.43377   0.46435  -0.12253  -0.53732  -0.00875
  49        4PZ        -0.51843  -0.16245  -0.33886   0.06508   0.09145
  50        5D 0        0.16225   0.13106   0.06145  -0.03340   0.08002
  51        5D+1        0.14893   0.12899   0.12872   0.01311   0.19003
  52        5D-1        0.03546   0.16317  -0.03227   0.11122   0.12697
  53        5D+2       -0.11400   0.06097   0.02714  -0.06917   0.19612
  54        5D-2       -0.15431  -0.23699   0.16745  -0.19535  -0.05198
  55 4   H  1S         -0.18287  -0.41496   0.14416  -0.32744  -0.69043
  56        2S          0.73676   0.94358  -0.12700   0.31765   0.92309
  57        3S         -0.20840  -0.28319   0.12524  -0.24398  -0.45285
  58        4PX         0.19420  -0.50875   0.30956  -0.34667   0.18891
  59        4PY        -0.11373  -0.14422  -0.06615   0.16736  -0.26216
  60        4PZ         0.37708   0.03210   0.32158   0.04984   0.13376
  61 5   H  1S          0.16451   0.07920  -0.25057   0.28021  -0.36837
  62        2S         -0.13215  -0.15690   0.60927  -0.31864   0.55094
  63        3S          0.09501   0.12467  -0.24579   0.32238  -0.16978
  64        4PX         0.51551  -0.13847   0.04218  -0.16465   0.27424
  65        4PY        -0.03034  -0.13202   0.10725  -0.05402   0.18717
  66        4PZ         0.51256  -0.10986   0.28026  -0.24096  -0.13447
                          41        42        43        44        45
                           V         V         V         V         V
     Eigenvalues --     1.94994   2.08630   2.12343   2.24972   2.33121
   1 1   N  1S         -0.01057   0.00299   0.00314   0.01641   0.01155
   2        2S         -0.02279   0.00667   0.00511   0.03781   0.02721
   3        2PX         0.02387  -0.00889  -0.01235   0.08536   0.03425
   4        2PY        -0.05857   0.01691  -0.05879   0.08241   0.04560
   5        2PZ        -0.03737   0.05337   0.00835  -0.06767   0.08378
   6        3S          0.26442  -0.06047   0.00572  -0.34618  -0.26197
   7        3PX        -0.12946  -0.03456   0.03274  -0.02475   0.01783
   8        3PY        -0.02456  -0.03096  -0.02658  -0.09329  -0.04437
   9        3PZ        -0.01059   0.01930   0.00194   0.00151  -0.01739
  10        4S         -0.95243   0.60940  -0.23922   0.35886   0.38093
  11        4PX         2.23490   0.91237   0.27324   0.75108   0.81453
  12        4PY        -0.30891   0.17475   0.01013   0.27502   0.43146
  13        4PZ        -0.07730   0.01962   0.09800  -0.00306   0.31232
  14        5D 0        0.07596  -0.04217  -0.38766  -0.35416  -0.19967
  15        5D+1        0.09103   0.11630  -0.02415  -0.07242   0.03376
  16        5D-1        0.03259  -0.42143   0.03126   0.10186   0.10023
  17        5D+2       -0.16885  -0.02333  -0.31236   0.23444   0.12741
  18        5D-2        0.37586   0.07962  -0.16668   0.21251   0.14441
  19 2   N  1S          0.00220   0.00086  -0.00525   0.01363   0.01249
  20        2S          0.00412   0.00198  -0.01176   0.03438   0.02912
  21        2PX         0.04240   0.01621  -0.00939  -0.01032   0.00485
  22        2PY        -0.05958   0.00235   0.01081   0.01370  -0.00890
  23        2PZ        -0.01875  -0.00400   0.00514  -0.00734   0.01502
  24        3S         -0.03193   0.00384   0.08905  -0.26680  -0.23607
  25        3PX         0.06504   0.05893  -0.06407   0.28496   0.21256
  26        3PY        -0.07481   0.00512  -0.02414   0.09764   0.05558
  27        3PZ        -0.02381   0.00820   0.00422   0.00281   0.01777
  28        4S         -1.20701  -0.93879  -0.19826  -0.56988  -0.61814
  29        4PX         0.28008   0.34153   0.10675   0.07627   0.12562
  30        4PY         0.48271   0.14831   0.03017  -0.06061   0.01564
  31        4PZ         0.08150   0.00488  -0.03814   0.05873  -0.17134
  32        5D 0        0.23816   0.03367   0.64219  -0.01853  -0.06304
  33        5D+1       -0.11097  -0.11526   0.05168  -0.16777   0.31493
  34        5D-1       -0.22128   0.67776  -0.01889  -0.12619   0.05109
  35        5D+2        0.40200   0.03258   0.31659   0.15710   0.06347
  36        5D-2       -0.29198   0.00203   0.15230   0.29041   0.12694
  37 3   N  1S         -0.00965   0.00728   0.00850   0.01595   0.01065
  38        2S         -0.01303   0.02463   0.01905   0.03393   0.02660
  39        2PX         0.04959  -0.05212  -0.01226   0.02987   0.00258
  40        2PY         0.10362   0.00424  -0.10982   0.10064   0.10339
  41        2PZ         0.06748   0.09539  -0.01475  -0.04820   0.02279
  42        3S         -0.13007  -0.29044  -0.17534  -0.26530  -0.23543
  43        3PX         0.14641   0.19298   0.03086  -0.04003  -0.06153
  44        3PY        -0.05059   0.22715   0.03129   0.50521  -0.85317
  45        3PZ         0.01909  -0.11508  -0.02900  -0.05427  -0.01602
  46        4S          2.20887   0.25686   0.26887   0.35980   0.24025
  47        4PX         1.05641   0.05859   0.31252   0.42005   0.18526
  48        4PY        -0.22047  -0.12274  -0.17141  -0.03932  -1.08262
  49        4PZ         0.34522   0.03014  -0.12853  -0.15889  -0.22529
  50        5D 0        0.22114   0.01442  -0.20221  -0.35616  -0.26183
  51        5D+1        0.05206  -0.23263   0.06836   0.19635  -0.18470
  52        5D-1       -0.20219  -0.02389   0.29150  -0.36316  -0.09717
  53        5D+2        0.01596   0.13472   0.08833   0.01633   0.21199
  54        5D-2       -0.00879  -0.13964   0.17891  -0.43103   0.08656
  55 4   H  1S         -0.01091  -0.65801  -0.25493  -0.16336   0.41125
  56        2S         -0.20047   1.08947   0.38539   0.70797  -1.39912
  57        3S          0.15833  -0.33565  -0.17490  -0.04577   0.30822
  58        4PX        -0.13206   0.31870   0.11352   0.14991  -0.28333
[...]
     2   7     0.14  -0.21  -0.02    -0.01   0.02  -0.15    -0.06   0.03   0.00
     3   7    -0.04  -0.11   0.04     0.02   0.05  -0.08     0.13   0.00   0.14
     4   1     0.09  -0.36  -0.31    -0.14  -0.19  -0.81    -0.28  -0.05  -0.60
     5   1    -0.65  -0.20  -0.30    -0.09  -0.17   0.39    -0.11   0.17  -0.69
                     4                      5                      6
                     A                      A                      A
 Frequencies --   983.0113              1240.7048              1607.5817
 Red. masses --     3.8100                 1.3097                 1.0890
 Frc consts  --     2.1692                 1.1878                 1.6581
 IR Inten    --    32.3446                17.0399                31.4105
  Atom  AN      X      Y      Z        X      Y      Z        X      Y      Z
     1   7     0.20  -0.15  -0.02    -0.00   0.05  -0.00    -0.01  -0.01  -0.01
     2   7     0.18   0.05   0.01     0.08   0.01   0.00     0.02   0.01   0.00
     3   7    -0.32   0.11   0.06    -0.08  -0.09   0.01     0.07  -0.01  -0.02
     4   1    -0.18  -0.11  -0.23    -0.66   0.19  -0.19    -0.57   0.48   0.18
     5   1    -0.71   0.09  -0.42     0.67   0.15   0.04    -0.54  -0.28   0.20
                     7                      8                      9
                     A                      A                      A
 Frequencies --  1929.9494              3328.1159              3619.7740
 Red. masses --    10.0274                 1.0564                 1.0863
 Frc consts  --    22.0055                 6.8938                 8.3860
 IR Inten    --   103.2679                31.4430                56.7740
  Atom  AN      X      Y      Z        X      Y      Z        X      Y      Z
     1   7     0.59   0.20   0.00    -0.00   0.00  -0.00     0.00   0.00  -0.00
     2   7    -0.52  -0.18  -0.01    -0.00  -0.00   0.00    -0.00  -0.00  -0.00
     3   7    -0.04  -0.05   0.02    -0.03   0.05   0.02     0.03   0.07  -0.02
     4   1    -0.49   0.22  -0.12     0.12   0.19  -0.06    -0.50  -0.76   0.36
     5   1     0.01   0.02  -0.02     0.30  -0.88  -0.27     0.06  -0.18  -0.07

 -------------------
 - Thermochemistry -
 -------------------
 Temperature   298.150 Kelvin.  Pressure   1.00000 Atm.
 Atom     1 has atomic number  7 and mass  14.00307
 Atom     2 has atomic number  7 and mass  14.00307
 Atom     3 has atomic number  7 and mass  14.00307
 Atom     4 has atomic number  1 and mass   1.00783
 Atom     5 has atomic number  1 and mass   1.00783
 Molecular mass:    44.02487 amu.
 Principal axes and moments of inertia in atomic units:
                           1         2         3
     Eigenvalues --     9.52447 166.69129 174.63514
           X            0.99982  -0.00616  -0.01795
           Y            0.00630   0.99995   0.00781
           Z            0.01790  -0.00793   0.99981
 This molecule is an asymmetric top.
 Rotational symmetry number  1.
 Rotational temperatures (Kelvin)      9.09382     0.51961     0.49597
 Rotational constants (GHZ):         189.48475    10.82685    10.33435
 Zero-point vibrational energy      84049.8 (Joules/Mol)
                                   20.08838 (Kcal/Mol)
 Warning -- explicit consideration of   3 degrees of freedom as
           vibrations may cause significant error
 Vibrational temperatures:    495.66   627.36   809.10  1414.33  1785.10
          (Kelvin)           2312.95  2776.76  4788.41  5208.04
 
 Zero-point correction=                           0.032013 (Hartree/Particle)
 Thermal correction to Energy=                    0.035728
 Thermal correction to Enthalpy=                  0.036672
 Thermal correction to Gibbs Free Energy=         0.007405
 Sum of electronic and zero-point Energies=           -165.252175
 Sum of electronic and thermal Energies=              -165.248459
 Sum of electronic and thermal Enthalpies=            -165.247515
 Sum of electronic and thermal Free Energies=         -165.276783
 
                     E (Thermal)             CV                S
                      KCal/Mol        Cal/Mol-Kelvin    Cal/Mol-Kelvin
 Total                   22.420             10.695             61.599
 Electronic               0.000              0.000              1.377
 Translational            0.889              2.981             37.273
 Rotational               0.889              2.981             20.255
 Vibrational             20.642              4.734              2.694
 Vibration     1          0.723              1.586              1.191
 Vibration     2          0.796              1.392              0.839
 Vibration     3          0.918              1.113              0.519
                       Q            Log10(Q)             Ln(Q)
 Total Bot       0.392802D-03         -3.405826         -7.842205
 Total V=0       0.208469D+12         11.319043         26.063059
 Vib (Bot)       0.286980D-14        -14.542148        -33.484533
 Vib (Bot)    1  0.537457D+00         -0.269656         -0.620906
 Vib (Bot)    2  0.397708D+00         -0.400435         -0.922037
 Vib (Bot)    3  0.275745D+00         -0.559493         -1.288280
 Vib (V=0)       0.152307D+01          0.182721          0.420731
 Vib (V=0)    1  0.123407D+01          0.091340          0.210319
 Vib (V=0)    2  0.113888D+01          0.056479          0.130048
 Vib (V=0)    3  0.107099D+01          0.029787          0.068588
 Electronic      0.200000D+01          0.301030          0.693147
 Translational   0.114816D+08          7.060002         16.256256
 Rotational      0.596059D+04          3.775289          8.692924
 
                                                  reverse IRC, from TS reverse1 f
 req
                                                             IR Spectrum
 
     3          3                                                1          1            1                                           
     6          3                                                9          6            2        9              5   4  3            
     2          2                                                3          0            4        8              6   3  4            
     0          8                                                0          8            1        3              2   6  5            
 
     X          X                                                X          X            X        X              X   X  X            
     X          X                                                X          X            X        X              X      X            
     X          X                                                X          X                     X              X      X            
     X                                                           X                                               X      X            
     X                                                           X                                               X      X            
                                                                 X                                               X                   
                                                                 X                                               X                   
                                                                 X                                               X                   
                                                                 X                                               X                   
                                                                 X                                               X                   
                                                                                                                 X                   
                                                                                                                 X                   
                                                                                                                 X                   
                                                                                                                 X                   
                                                                                                                 X                   
                                                                                                                 X                   
                                                                                                                 X                   
                                                                                                                 X                   
                                                                                                                 X                   
                                                                                                                 X                   
 
 ***** Axes restored to original set *****
 -------------------------------------------------------------------
 Center     Atomic                   Forces (Hartrees/Bohr)
 Number     Number              X              Y              Z
 -------------------------------------------------------------------
      1        7          -0.048101735   -0.030909332    0.001520504
      2        7           0.028099579    0.017288008   -0.005258671
      3        7           0.015278846    0.011909393    0.001821323
      4        1           0.003262470   -0.000033107   -0.002207150
      5        1           0.001460840    0.001745038    0.004123995
 -------------------------------------------------------------------
 Cartesian Forces:  Max     0.048101735 RMS     0.017895787
 Z-matrix is all fixed cartesians, so copy forces.
 Force constants in Cartesian coordinates: 
                1             2             3             4             5 
      1  0.810317D-01
      2  0.704068D-01  0.580801D-01
      3  0.140519D-01  0.114555D+00  0.110950D+01
      4 -0.169352D-01 -0.207312D-01 -0.522998D-01  0.158598D-01
      5 -0.222123D-01 -0.289005D-01 -0.136257D+00  0.124164D-01  0.257016D-01
      6 -0.668159D-01 -0.144817D+00 -0.861394D+00  0.242153D-01  0.129444D+00
      7 -0.589458D-01 -0.369090D-01 -0.664974D-02 -0.119942D-02  0.378165D-02
      8 -0.482311D-01 -0.256777D-01  0.306400D-01  0.296616D-02 -0.256984D-02
      9  0.355666D-01  0.622124D-03 -0.192802D+00  0.324261D-01  0.758460D-02
     10  0.931441D-02  0.594085D-02  0.314925D-01  0.281318D-03 -0.173913D-02
     11  0.129164D-01 -0.119486D-01 -0.165582D-02 -0.395085D-02  0.786928D-02
     12 -0.120793D-01 -0.117179D-02 -0.572727D-01 -0.419045D-04  0.194088D-02
     13 -0.144652D-01 -0.187074D-01  0.134051D-01  0.199356D-02  0.775341D-02
     14 -0.128798D-01  0.844678D-02 -0.728148D-02  0.929947D-02 -0.210047D-02
     15  0.292768D-01  0.308122D-01  0.196846D-02 -0.429973D-02 -0.271168D-02
                6             7             8             9            10 
      6  0.949477D+00
      7  0.322147D-01  0.459846D+00
      8 -0.328857D-02  0.271000D+00  0.301538D+00
      9 -0.889993D-01  0.155221D+00 -0.349337D-01  0.563341D+00
     10  0.362424D-02 -0.261945D+00 -0.678457D-01 -0.221108D+00  0.262083D+00
     11  0.368680D-02 -0.482316D-01 -0.253319D-01 -0.210005D-02  0.566216D-01
     12  0.563949D-02 -0.190775D+00 -0.242898D-01 -0.212244D+00  0.197089D+00
     13  0.676169D-02 -0.137756D+00 -0.157889D+00 -0.210529D-02 -0.973358D-02
     14  0.149754D-01 -0.189641D+00 -0.247958D+00  0.288271D-01  0.702240D-02
     15 -0.472307D-02  0.998909D-02  0.318721D-01 -0.692957D-01 -0.110976D-01
               11            12            13            14            15 
     11  0.331441D-01
     12  0.216353D-01  0.256618D+00
     13 -0.173555D-01  0.580701D-02  0.159961D+00
     14 -0.373289D-02  0.188546D-02  0.186199D+00  0.245345D+00
     15 -0.215662D-01  0.725946D-02 -0.238685D-01 -0.384064D-01  0.647908D-01
 Leave Link  716 at Fri Apr 25 17:10:12 2014, MaxMem=   65536000 cpu:       0.2
 (Enter /apps/gaussian/g09/l103.exe)

 GradGradGradGradGradGradGradGradGradGradGradGradGradGradGradGradGradGrad
 Berny optimization.
 Search for a local minimum.
 Step number   1 out of a maximum of    2
 All quantities printed in internal units (Hartrees-Bohrs-Radians)
 Second derivative matrix not updated -- analytic derivatives used.
 The second derivative matrix:
                          X1        Y1        Z1        X2        Y2
           X1           0.08103
           Y1           0.07041   0.05808
           Z1           0.01405   0.11455   1.10950
           X2          -0.01694  -0.02073  -0.05230   0.01586
           Y2          -0.02221  -0.02890  -0.13626   0.01242   0.02570
           Z2          -0.06682  -0.14482  -0.86139   0.02422   0.12944
           X3          -0.05895  -0.03691  -0.00665  -0.00120   0.00378
           Y3          -0.04823  -0.02568   0.03064   0.00297  -0.00257
           Z3           0.03557   0.00062  -0.19280   0.03243   0.00758
           X4           0.00931   0.00594   0.03149   0.00028  -0.00174
           Y4           0.01292  -0.01195  -0.00166  -0.00395   0.00787
           Z4          -0.01208  -0.00117  -0.05727  -0.00004   0.00194
           X5          -0.01447  -0.01871   0.01341   0.00199   0.00775
           Y5          -0.01288   0.00845  -0.00728   0.00930  -0.00210
           Z5           0.02928   0.03081   0.00197  -0.00430  -0.00271
                          Z2        X3        Y3        Z3        X4
           Z2           0.94948
           X3           0.03221   0.45985
           Y3          -0.00329   0.27100   0.30154
           Z3          -0.08900   0.15522  -0.03493   0.56334
           X4           0.00362  -0.26195  -0.06785  -0.22111   0.26208
           Y4           0.00369  -0.04823  -0.02533  -0.00210   0.05662
           Z4           0.00564  -0.19077  -0.02429  -0.21224   0.19709
           X5           0.00676  -0.13776  -0.15789  -0.00211  -0.00973
           Y5           0.01498  -0.18964  -0.24796   0.02883   0.00702
           Z5          -0.00472   0.00999   0.03187  -0.06930  -0.01110
                          Y4        Z4        X5        Y5        Z5
           Y4           0.03314
           Z4           0.02164   0.25662
           X5          -0.01736   0.00581   0.15996
           Y5          -0.00373   0.00189   0.18620   0.24534
           Z5          -0.02157   0.00726  -0.02387  -0.03841   0.06479
     Eigenvalues ---    0.01109   0.02362   0.04173   0.12102   0.17003
     Eigenvalues ---    0.35126   0.73462   0.97693   1.94276
 Quadratic step=1.520D+00 exceeds max=3.000D-01 adjusted using Lamda=-1.311D-01.
 Angle between NR and scaled steps=  25.43 degrees.
 Angle between quadratic step and forces=  23.76 degrees.
 Linear search not attempted -- first point.
 TrRot= -0.001872 -0.001243 -0.006610  0.446348  0.009436 -0.454663
 Variable       Old X    -DE/DX   Delta X   Delta X   Delta X     New X
                                 (Linear)    (Quad)   (Total)
    X1       -0.38064  -0.04810   0.00000  -0.18665  -0.19013  -0.57077
    Y1       -0.25122  -0.03091   0.00000  -0.11286  -0.10870  -0.35992
    Z1        0.16504   0.00152   0.00000  -0.00348  -0.00378   0.16126
    X2       -0.35267   0.02810   0.00000   0.12585   0.14454  -0.20813
    Y2        0.02730   0.01729   0.00000   0.07465   0.08472   0.11202
    Z2        2.35969  -0.00526   0.00000  -0.04507  -0.05028   2.30941
    X3        0.65461   0.01528   0.00000   0.03470   0.01610   0.67071
    Y3        0.11359   0.01191   0.00000   0.01574   0.00025   0.11384
    Z3       -2.10510   0.00182   0.00000   0.01946   0.00656  -2.09854
    X4       -0.71980   0.00326   0.00000   0.06971   0.03795  -0.68185
    Y4       -0.10094  -0.00003   0.00000   0.01726   0.00744  -0.09349
    Z4       -3.41357  -0.00221   0.00000  -0.02181  -0.02241  -3.43598
    X5        1.81790   0.00146   0.00000  -0.00064  -0.00846   1.80944
    Y5        1.63287   0.00175   0.00000   0.04218   0.01628   1.64915
    Z5       -2.41537   0.00412   0.00000   0.09876   0.06990  -2.34547
         Item               Value     Threshold  Converged?
 Maximum Force            0.048102     0.000450     NO 
 RMS     Force            0.017896     0.000300     NO 
 Maximum Displacement     0.190132     0.001800     NO 
 RMS     Displacement     0.075763     0.001200     NO 
 Predicted change in Energy=-1.541203D-02
 GradGradGradGradGradGradGradGradGradGradGradGradGradGradGradGradGradGrad

 Leave Link  103 at Fri Apr 25 17:10:12 2014, MaxMem=   65536000 cpu:       0.1
 (Enter /apps/gaussian/g09/l9999.exe)

 Test job not archived.
 1\1\GINC-ROMEO166\Freq\UM06\6-311G(d,p)\H2N3(2)\ROOT\25-Apr-2014\0\\#P
  M06 6-311G** FREQ # GFINPUT IOP(6/7=3) POP=FULL\\reverse IRC, from TS
  reverse1 freq\\0,2\N,-0.201426,-0.13294,0.087335\N,-0.186623,0.014445
 ,1.248692\N,0.346404,0.060107,-1.113972\H,-0.380901,-0.053413,-1.80638
 4\H,0.96199,0.864076,-1.278158\\Version=AM64L-G09RevA.02\State=2-A\HF=
 -165.2841877\S2=0.753832\S2-1=0.\S2A=0.75001\RMSD=5.640e-09\RMSF=1.790
 e-02\ZeroPoint=0.0320129\Thermal=0.0357282\Dipole=0.1244514,0.4565858,
 -1.324601\DipoleDeriv=-0.1151911,-0.1662301,-0.475938,-0.0123409,-0.09
 64667,-0.2612759,-0.5434268,-0.1961352,1.0510851,-0.1481497,0.0294874,
 0.0240479,0.017147,-0.1513811,0.0066832,0.4091046,0.277403,-0.5669344,
 -0.0776143,0.3459531,0.4148164,0.2986395,-0.0879742,-0.081272,0.043956
 1,-0.1460473,-0.7532383,0.1806984,-0.0556327,-0.0246109,-0.0630039,0.2
 67813,0.150657,0.0545654,0.0491307,0.2491269,0.1602567,-0.1535777,0.06
 16846,-0.2404418,0.068009,0.1852078,0.0358006,0.0156488,0.0199606\Pola
 r=16.2121308,3.6064,14.174126,-4.8880649,-2.0084659,36.9525731\PG=C01 
 [X(H2N3)]\NImag=0\\0.08103175,0.07040679,0.05808007,0.01405187,0.11455
 472,1.10950052,-0.01693524,-0.02073119,-0.05229978,0.01585977,-0.02221
 235,-0.02890054,-0.13625745,0.01241641,0.02570157,-0.06681595,-0.14481
 729,-0.86139419,0.02421535,0.12944364,0.94947705,-0.05894576,-0.036909
 00,-0.00664974,-0.00119942,0.00378165,0.03221466,0.45984647,-0.0482310
 6,-0.02567771,0.03064002,0.00296616,-0.00256984,-0.00328857,0.27099966
 ,0.30153775,0.03556657,0.00062212,-0.19280206,0.03242607,0.00758460,-0
 .08899927,0.15522081,-0.03493373,0.56334089,0.00931441,0.00594085,0.03
 149255,0.00028132,-0.00173913,0.00362424,-0.26194509,-0.06784572,-0.22
 110816,0.26208294,0.01291642,-0.01194860,-0.00165582,-0.00395085,0.007
 86928,0.00368680,-0.04823162,-0.02533191,-0.00210005,0.05662160,0.0331
 4413,-0.01207929,-0.00117179,-0.05727273,-0.00004190,0.00194088,0.0056
 3949,-0.19077482,-0.02428983,-0.21224388,0.19708901,0.02163528,0.25661
 766,-0.01446516,-0.01870745,0.01340511,0.00199356,0.00775341,0.0067616
 9,-0.13775619,-0.15788906,-0.00210529,-0.00973358,-0.01735554,0.005807
 01,0.15996137,-0.01287980,0.00844678,-0.00728148,0.00929947,-0.0021004
 7,0.01497541,-0.18964069,-0.24795829,0.02882706,0.00702240,-0.00373289
 ,0.00188546,0.18619863,0.24534488,0.02927680,0.03081224,0.00196846,-0.
 00429973,-0.00271168,-0.00472307,0.00998909,0.03187211,-0.06929568,-0.
 01109763,-0.02156622,0.00725946,-0.02386853,-0.03840645,0.06479083\\0.
 04810174,0.03090933,-0.00152050,-0.02809958,-0.01728801,0.00525867,-0.
 01527885,-0.01190939,-0.00182132,-0.00326247,0.00003311,0.00220715,-0.
 00146084,-0.00174504,-0.00412399\\\@


 IT TAKES GREATER CHARACTER TO CARRY OFF GOOD FORTUNE THAN BAD.
                     FRENCH PROVERB.
 Job cpu time:  0 days  0 hours  1 minutes 57.8 seconds.
 File lengths (MBytes):  RWF=      9 Int=      0 D2E=      0 Chk=      1 Scr=      1
 Normal termination of Gaussian 09 at Fri Apr 25 17:10:12 2014.
************
total 316
drwxrwxr-x 2 henon henon   4096 25 avril 17:10 .
drwxrwxr-x 3 henon henon   4096 25 avril 17:10 ..
-rw-r--r-- 1 henon henon    392 25 avril 17:10 9Rfreq.inp
-rw-rw-r-- 1 henon henon 310695 25 avril 17:10 9Rfreq.out
Run on 12 cores
romeo166
************
