 Entering Gaussian System, Link 0=g09
 Initial command:
 /apps/gaussian/g09/l1.exe /scratch_l/henon/2Rfreq_27278/Gau-27294.inp -scrdir=/scratch_l/henon/2Rfreq_27278/
 Entering Link 1 = /apps/gaussian/g09/l1.exe PID=     27295.
  
 Copyright (c) 1988,1990,1992,1993,1995,1998,2003,2009, Gaussian, Inc.
                  All Rights Reserved.
  
 This is part of the Gaussian(R) 09 program.  It is based on
 the Gaussian(R) 03 system (copyright 2003, Gaussian, Inc.),
 the Gaussian(R) 98 system (copyright 1998, Gaussian, Inc.),
 the Gaussian(R) 94 system (copyright 1995, Gaussian, Inc.),
 the Gaussian 92(TM) system (copyright 1992, Gaussian, Inc.),
 the Gaussian 90(TM) system (copyright 1990, Gaussian, Inc.),
 the Gaussian 88(TM) system (copyright 1988, Gaussian, Inc.),
 the Gaussian 86(TM) system (copyright 1986, Carnegie Mellon
 University), and the Gaussian 82(TM) system (copyright 1983,
 Carnegie Mellon University). Gaussian is a federally registered
 trademark of Gaussian, Inc.
  
 This software contains proprietary and confidential information,
 including trade secrets, belonging to Gaussian, Inc.
  
 This software is provided under written license and may be
 used, copied, transmitted, or stored only in accord with that
 written license.
  
 The following legend is applicable only to US Government
 contracts under FAR:
  
                    RESTRICTED RIGHTS LEGEND
  
 Use, reproduction and disclosure by the US Government is
 subject to restrictions as set forth in subparagraphs (a)
 and (c) of the Commercial Computer Software - Restricted
 Rights clause in FAR 52.227-19.
  
 Gaussian, Inc.
 340 Quinnipiac St., Bldg. 40, Wallingford CT 06492
  
  
 ---------------------------------------------------------------
 Warning -- This program may not be used in any manner that
 competes with the business of Gaussian, Inc. or will provide
 assistance to any competitor of Gaussian, Inc.  The licensee
 of this program is prohibited from giving any competitor of
 Gaussian, Inc. access to this program.  By using this program,
 the user acknowledges that Gaussian, Inc. is engaged in the
 business of creating and licensing software in the field of
 computational chemistry and represents and warrants to the
 licensee that it is not a competitor of Gaussian, Inc. and that
 it will not use this program in any manner prohibited above.
 ---------------------------------------------------------------
  

 Cite this work as:
 Gaussian 09, Revision A.02,
 M. J. Frisch, G. W. Trucks, H. B. Schlegel, G. E. Scuseria, 
 M. A. Robb, J. R. Cheeseman, G. Scalmani, V. Barone, B. Mennucci, 
 G. A. Petersson, H. Nakatsuji, M. Caricato, X. Li, H. P. Hratchian, 
 A. F. Izmaylov, J. Bloino, G. Zheng, J. L. Sonnenberg, M. Hada, 
 M. Ehara, K. Toyota, R. Fukuda, J. Hasegawa, M. Ishida, T. Nakajima, 
 Y. Honda, O. Kitao, H. Nakai, T. Vreven, J. A. Montgomery, Jr., 
 J. E. Peralta, F. Ogliaro, M. Bearpark, J. J. Heyd, E. Brothers, 
 K. N. Kudin, V. N. Staroverov, R. Kobayashi, J. Normand, 
 K. Raghavachari, A. Rendell, J. C. Burant, S. S. Iyengar, J. Tomasi, 
 M. Cossi, N. Rega, J. M. Millam, M. Klene, J. E. Knox, J. B. Cross, 
 V. Bakken, C. Adamo, J. Jaramillo, R. Gomperts, R. E. Stratmann, 
 O. Yazyev, A. J. Austin, R. Cammi, C. Pomelli, J. W. Ochterski, 
 R. L. Martin, K. Morokuma, V. G. Zakrzewski, G. A. Voth, 
 P. Salvador, J. J. Dannenberg, S. Dapprich, A. D. Daniels, 
 O. Farkas, J. B. Foresman, J. V. Ortiz, J. Cioslowski, 
 and D. J. Fox, Gaussian, Inc., Wallingford CT, 2009.
 
 ******************************************
 Gaussian 09:  AM64L-G09RevA.02 11-Jun-2009
                29-Apr-2014 
 ******************************************
 %NPROC=12
 Will use up to   12 processors via shared memory.
 %MEM=500MB
 --------------------------------------------------
 #P M06 6-311G** FREQ # GFINPUT IOP(6/7=3) POP=FULL
 --------------------------------------------------
 1/10=4,30=1,38=1/1,3;
 2/12=2,17=6,18=5,40=1/2;
 3/5=4,6=6,7=101,11=2,16=1,24=10,25=1,30=1,71=2,74=-54/1,2,3;
 4//1;
 5/5=2,38=5,98=1/2;
 8/6=4,10=90,11=11/1;
 11/6=1,8=1,9=11,15=111,16=1/1,2,10;
 10/6=1/2;
 6/7=3,18=1,28=1/1;
 7/8=1,10=1,25=1/1,2,3,16;
 1/10=4,30=1/3;
 99//99;
 Leave Link    1 at Tue Apr 29 14:50:18 2014, MaxMem=   65536000 cpu:       0.5
 (Enter /apps/gaussian/g09/l101.exe)
 --------------------
 RC, from TS 2reverse
 --------------------
 Symbolic Z-matrix:
 Charge =  0 Multiplicity = 2
 7                    -0.10779  -0.06322   0.09506 
 7                    -0.23529  -0.02301   1.21945 
 7                     0.28747  -0.01143  -1.07768 
 1                    -0.49097  -0.01863  -1.73444 
 1                     1.26367   1.37561  -1.55611 
 
 NAtoms=      5 NQM=      5 NQMF=      0 NMic=      0 NMicF=      0 NTot=      5.
                    Isotopes and Nuclear Properties:
 (Nuclear quadrupole moments (NQMom) in fm**2, nuclear magnetic moments (NMagM)
  in nuclear magnetons)

  Atom         1           2           3           4           5
 IAtWgt=          14          14          14           1           1
 AtmWgt=  14.0030740  14.0030740  14.0030740   1.0078250   1.0078250
 NucSpn=           2           2           2           1           1
 AtZEff=   0.0000000   0.0000000   0.0000000   0.0000000   0.0000000
 NQMom=    2.0440000   2.0440000   2.0440000   0.0000000   0.0000000
 NMagM=    0.4037610   0.4037610   0.4037610   2.7928460   2.7928460
 Leave Link  101 at Tue Apr 29 14:50:18 2014, MaxMem=   65536000 cpu:       0.5
 (Enter /apps/gaussian/g09/l103.exe)

 GradGradGradGradGradGradGradGradGradGradGradGradGradGradGradGradGradGrad
 Berny optimization.
 Initialization pass.
 Trust Radius=3.00D-01 FncErr=1.00D-07 GrdErr=1.00D-07
 Number of steps in this run=   2 maximum allowed number of steps=   2.
 GradGradGradGradGradGradGradGradGradGradGradGradGradGradGradGradGradGrad

 Leave Link  103 at Tue Apr 29 14:50:18 2014, MaxMem=   65536000 cpu:       0.1
 (Enter /apps/gaussian/g09/l202.exe)
                          Input orientation:                          
 ---------------------------------------------------------------------
 Center     Atomic      Atomic             Coordinates (Angstroms)
 Number     Number       Type             X           Y           Z
 ---------------------------------------------------------------------
      1          7           0       -0.107791   -0.063224    0.095058
      2          7           0       -0.235294   -0.023006    1.219449
      3          7           0        0.287472   -0.011434   -1.077680
      4          1           0       -0.490971   -0.018626   -1.734443
      5          1           0        1.263670    1.375608   -1.556108
 ---------------------------------------------------------------------
                    Distance matrix (angstroms):
                    1          2          3          4          5
     1  N    0.000000
     2  N    1.132312   0.000000
     3  N    1.238640   2.355890   0.000000
     4  H    1.869730   2.964940   1.018510   0.000000
     5  H    2.584084   3.450613   1.762311   2.248212   0.000000
 Stoichiometry    H2N3(2)
 Framework group  C1[X(H2N3)]
 Deg. of freedom     9
 Full point group                 C1      NOp   1
 Largest Abelian subgroup         C1      NOp   1
 Largest concise Abelian subgroup C1      NOp   1
                         Standard orientation:                         
 ---------------------------------------------------------------------
 Center     Atomic      Atomic             Coordinates (Angstroms)
 Number     Number       Type             X           Y           Z
 ---------------------------------------------------------------------
      1          7           0        0.199830   -0.107834    0.007622
      2          7           0        1.311220    0.108502    0.019540
      3          7           0       -1.031614   -0.092753   -0.124840
      4          1           0       -1.480682   -0.775270    0.483331
      5          1           0       -1.875366    1.419871    0.200419
 ---------------------------------------------------------------------
 Rotational constants (GHZ):    145.2248057     11.0863427     10.4970137
 Leave Link  202 at Tue Apr 29 14:50:18 2014, MaxMem=   65536000 cpu:       0.0
 (Enter /apps/gaussian/g09/l301.exe)
 Standard basis: 6-311G(d,p) (5D, 7F)
 Ernie: Thresh=  0.10000D-02 Tol=  0.10000D-05 Strict=F.
 AO basis set in the form of general basis input (Overlap normalization):
      1 0
 S   6 1.00       0.000000000000
      0.6293480000D+04  0.1969788147D-02
      0.9490440000D+03  0.1496128592D-01
      0.2187760000D+03  0.7350053084D-01
      0.6369160000D+02  0.2489367658D+00
      0.1882820000D+02  0.6024594331D+00
      0.2720230000D+01  0.2562017589D+00
 SP   3 1.00       0.000000000000
      0.3063310000D+02  0.1119060795D+00  0.3831191864D-01
      0.7026140000D+01  0.9216666549D+00  0.2374031155D+00
      0.2112050000D+01 -0.2569191826D-02  0.8175923978D+00
 SP   1 1.00       0.000000000000
      0.6840090000D+00  0.1000000000D+01  0.1000000000D+01
 SP   1 1.00       0.000000000000
      0.2008780000D+00  0.1000000000D+01  0.1000000000D+01
 D   1 1.00       0.000000000000
      0.9130000000D+00  0.1000000000D+01
 ****
      2 0
 S   6 1.00       0.000000000000
      0.6293480000D+04  0.1969788147D-02
      0.9490440000D+03  0.1496128592D-01
      0.2187760000D+03  0.7350053084D-01
      0.6369160000D+02  0.2489367658D+00
      0.1882820000D+02  0.6024594331D+00
      0.2720230000D+01  0.2562017589D+00
 SP   3 1.00       0.000000000000
      0.3063310000D+02  0.1119060795D+00  0.3831191864D-01
      0.7026140000D+01  0.9216666549D+00  0.2374031155D+00
      0.2112050000D+01 -0.2569191826D-02  0.8175923978D+00
 SP   1 1.00       0.000000000000
      0.6840090000D+00  0.1000000000D+01  0.1000000000D+01
 SP   1 1.00       0.000000000000
      0.2008780000D+00  0.1000000000D+01  0.1000000000D+01
 D   1 1.00       0.000000000000
      0.9130000000D+00  0.1000000000D+01
 ****
      3 0
 S   6 1.00       0.000000000000
      0.6293480000D+04  0.1969788147D-02
      0.9490440000D+03  0.1496128592D-01
      0.2187760000D+03  0.7350053084D-01
      0.6369160000D+02  0.2489367658D+00
      0.1882820000D+02  0.6024594331D+00
      0.2720230000D+01  0.2562017589D+00
 SP   3 1.00       0.000000000000
      0.3063310000D+02  0.1119060795D+00  0.3831191864D-01
      0.7026140000D+01  0.9216666549D+00  0.2374031155D+00
      0.2112050000D+01 -0.2569191826D-02  0.8175923978D+00
 SP   1 1.00       0.000000000000
      0.6840090000D+00  0.1000000000D+01  0.1000000000D+01
 SP   1 1.00       0.000000000000
      0.2008780000D+00  0.1000000000D+01  0.1000000000D+01
 D   1 1.00       0.000000000000
      0.9130000000D+00  0.1000000000D+01
 ****
      4 0
 S   3 1.00       0.000000000000
      0.3386500000D+02  0.2549381454D-01
      0.5094790000D+01  0.1903731086D+00
      0.1158790000D+01  0.8521614860D+00
 S   1 1.00       0.000000000000
      0.3258400000D+00  0.1000000000D+01
 S   1 1.00       0.000000000000
      0.1027410000D+00  0.1000000000D+01
 P   1 1.00       0.000000000000
      0.7500000000D+00  0.1000000000D+01
 ****
      5 0
 S   3 1.00       0.000000000000
      0.3386500000D+02  0.2549381454D-01
      0.5094790000D+01  0.1903731086D+00
      0.1158790000D+01  0.8521614860D+00
 S   1 1.00       0.000000000000
      0.3258400000D+00  0.1000000000D+01
 S   1 1.00       0.000000000000
      0.1027410000D+00  0.1000000000D+01
 P   1 1.00       0.000000000000
      0.7500000000D+00  0.1000000000D+01
 ****

 There are    66 symmetry adapted basis functions of A   symmetry.
 Integral buffers will be    131072 words long.
 Raffenetti 2 integral format.
 Two-electron integral symmetry is turned on.
    66 basis functions,   112 primitive gaussians,    69 cartesian basis functions
    12 alpha electrons       11 beta electrons
       nuclear repulsion energy        66.5518031547 Hartrees.
 IExCor= 4235 DFT=T Ex+Corr=M06 ExCW=0 ScaHFX=  0.270000
 ScaDFX=  1.000000  1.000000  1.000000  1.000000 ScalE2=  1.000000  1.000000
 IRadAn=      0 IRanWt=     -1 IRanGd=            0 ICorTp=0
 NAtoms=    5 NActive=    5 NUniq=    5 SFac= 7.50D-01 NAtFMM=   80 NAOKFM=F Big=F
 Leave Link  301 at Tue Apr 29 14:50:18 2014, MaxMem=   65536000 cpu:       0.4
 (Enter /apps/gaussian/g09/l302.exe)
 NPDir=0 NMtPBC=     1 NCelOv=     1 NCel=       1 NClECP=     1 NCelD=      1
         NCelK=      1 NCelE2=     1 NClLst=     1 CellRange=     0.0.
 One-electron integrals computed using PRISM.
 NBasis=    66 RedAO= T  NBF=    66
 NBsUse=    66 1.00D-06 NBFU=    66
 Precomputing XC quadrature grid using
 IXCGrd= 2 IRadAn=           0 IRanWt=          -1 IRanGd=           0 AccXCQ= 1.00D-10.
 NRdTot=     311 NPtTot=       39452 NUsed=       41707 NTot=       41739
 NSgBfM=    69    69    69    69    69 NAtAll=     5     5.
 Leave Link  302 at Tue Apr 29 14:50:18 2014, MaxMem=   65536000 cpu:       1.4
 (Enter /apps/gaussian/g09/l303.exe)
 DipDrv:  MaxL=1.
 Leave Link  303 at Tue Apr 29 14:50:18 2014, MaxMem=   65536000 cpu:       0.2
 (Enter /apps/gaussian/g09/l401.exe)
 Harris functional with IExCor= 1009 diagonalized for initial guess.
 ExpMin= 1.03D-01 ExpMax= 6.29D+03 ExpMxC= 9.49D+02 IAcc=1 IRadAn=         1 AccDes= 0.00D+00
 HarFok:  IExCor= 1009 AccDes= 0.00D+00 IRadAn=         1 IDoV= 1
 ScaDFX=  1.000000  1.000000  1.000000  1.000000
 FoFCou: FMM=F IPFlag=           0 FMFlag=      100000 FMFlg1=           0
         NFxFlg=           0 DoJE=T BraDBF=F KetDBF=T FulRan=T
         Omega=  0.000000  0.000000  1.000000  0.000000  0.000000 ICntrl=     500 IOpCl=  0
         NMat0=    1 NMatS0=    1 NMatT0=    0 NMatD0=    1 NMtDS0=    0 NMtDT0=    0
         I1Cent=           4 NGrid=           0.
 Petite list used in FoFCou.
 Harris En= -165.166613869404    
 Initial guess orbital symmetries:
 Alpha Orbitals:
       Occupied  (A) (A) (A) (A) (A) (A) (A) (A) (A) (A) (A) (A)
       Virtual   (A) (A) (A) (A) (A) (A) (A) (A) (A) (A) (A) (A)
                 (A) (A) (A) (A) (A) (A) (A) (A) (A) (A) (A) (A)
                 (A) (A) (A) (A) (A) (A) (A) (A) (A) (A) (A) (A)
                 (A) (A) (A) (A) (A) (A) (A) (A) (A) (A) (A) (A)
                 (A) (A) (A) (A) (A) (A)
 Beta  Orbitals:
       Occupied  (A) (A) (A) (A) (A) (A) (A) (A) (A) (A) (A)
       Virtual   (A) (A) (A) (A) (A) (A) (A) (A) (A) (A) (A) (A)
                 (A) (A) (A) (A) (A) (A) (A) (A) (A) (A) (A) (A)
                 (A) (A) (A) (A) (A) (A) (A) (A) (A) (A) (A) (A)
                 (A) (A) (A) (A) (A) (A) (A) (A) (A) (A) (A) (A)
                 (A) (A) (A) (A) (A) (A) (A)
 The electronic state of the initial guess is 2-A.
 Initial guess <Sx>= 0.0000 <Sy>= 0.0000 <Sz>= 0.5000 <S**2>= 0.7500 S= 0.5000
 Leave Link  401 at Tue Apr 29 14:50:19 2014, MaxMem=   65536000 cpu:       1.6
 (Enter /apps/gaussian/g09/l502.exe)
 UHF open shell SCF:
 Requested convergence on RMS density matrix=1.00D-08 within 128 cycles.
 Requested convergence on MAX density matrix=1.00D-06.
 Requested convergence on             energy=1.00D-06.
 No special actions if energy rises.
 Using DIIS extrapolation, IDIIS=  1040.
 Integral symmetry usage will be decided dynamically.
        41649 words used for storage of precomputed grid.
 Keep R1 and R2 ints in memory in canonical form, NReq=6799222.
 IEnd=       75419 IEndB=       75419 NGot=    65536000 MDV=    59647384
 LenX=    59647384 LenY=    59642182
 Symmetry not used in FoFDir.
 MinBra= 0 MaxBra= 2 Meth= 1.
 IRaf=       0 NMat=   1 IRICut=       1 DoRegI=T DoRafI=F ISym2E= 0 JSym2E=0.
 Integral accuracy reduced to 1.0D-05 until final iterations.

 Cycle   1  Pass 0  IDiag  1:
 E= -165.180759034606    
 DIIS: error= 2.67D-02 at cycle   1 NSaved=   1.
 NSaved= 1 IEnMin= 1 EnMin= -165.180759034606     IErMin= 1 ErrMin= 2.67D-02
 ErrMax= 2.67D-02 EMaxC= 1.00D-01 BMatC= 2.04D-01 BMatP= 2.04D-01
 IDIUse=3 WtCom= 7.33D-01 WtEn= 2.67D-01
 Coeff-Com:  0.100D+01
 Coeff-En:   0.100D+01
 Coeff:      0.100D+01
 Gap=     0.177 Goal=   None    Shift=    0.000
 Gap=     0.203 Goal=   None    Shift=    0.000
 GapD=    0.177 DampG=1.000 DampE=0.500 DampFc=0.5000 IDamp=-1.
 Damping current iteration by 5.00D-01
 RMSDP=5.84D-03 MaxDP=1.33D-01              OVMax= 1.35D-01

 Cycle   2  Pass 0  IDiag  1:
 E= -165.192938446254     Delta-E=       -0.012179411648 Rises=F Damp=T
 DIIS: error= 9.23D-03 at cycle   2 NSaved=   2.
 NSaved= 2 IEnMin= 2 EnMin= -165.192938446254     IErMin= 2 ErrMin= 9.23D-03
 ErrMax= 9.23D-03 EMaxC= 1.00D-01 BMatC= 3.42D-02 BMatP= 2.04D-01
 IDIUse=3 WtCom= 9.08D-01 WtEn= 9.23D-02
 Coeff-Com:  0.223D+00 0.777D+00
 Coeff-En:   0.319D+00 0.681D+00
 Coeff:      0.232D+00 0.768D+00
 Gap=     0.176 Goal=   None    Shift=    0.000
 Gap=     0.228 Goal=   None    Shift=    0.000
 RMSDP=1.35D-03 MaxDP=2.07D-02 DE=-1.22D-02 OVMax= 8.87D-02

 Cycle   3  Pass 0  IDiag  1:
 E= -165.219362341625     Delta-E=       -0.026423895372 Rises=F Damp=F
 DIIS: error= 9.74D-03 at cycle   3 NSaved=   3.
 NSaved= 3 IEnMin= 3 EnMin= -165.219362341625     IErMin= 2 ErrMin= 9.23D-03
 ErrMax= 9.74D-03 EMaxC= 1.00D-01 BMatC= 1.59D-02 BMatP= 3.42D-02
 IDIUse=3 WtCom= 9.03D-01 WtEn= 9.74D-02
 Coeff-Com:  0.605D-01 0.392D+00 0.547D+00
 Coeff-En:   0.000D+00 0.000D+00 0.100D+01
 Coeff:      0.546D-01 0.354D+00 0.591D+00
 Gap=     0.177 Goal=   None    Shift=    0.000
 Gap=     0.243 Goal=   None    Shift=    0.000
 RMSDP=1.06D-03 MaxDP=1.35D-02 DE=-2.64D-02 OVMax= 3.99D-02

 Cycle   4  Pass 0  IDiag  1:
 E= -165.219491658871     Delta-E=       -0.000129317245 Rises=F Damp=F
 DIIS: error= 1.19D-02 at cycle   4 NSaved=   4.
 NSaved= 4 IEnMin= 4 EnMin= -165.219491658871     IErMin= 2 ErrMin= 9.23D-03
 ErrMax= 1.19D-02 EMaxC= 1.00D-01 BMatC= 1.60D-02 BMatP= 1.59D-02
 IDIUse=3 WtCom= 8.81D-01 WtEn= 1.19D-01
 Coeff-Com:  0.443D-02 0.127D+00 0.482D+00 0.386D+00
 Coeff-En:   0.000D+00 0.000D+00 0.493D+00 0.507D+00
 Coeff:      0.390D-02 0.112D+00 0.483D+00 0.401D+00
 Gap=     0.175 Goal=   None    Shift=    0.000
 Gap=     0.242 Goal=   None    Shift=    0.000
 RMSDP=6.51D-04 MaxDP=6.77D-03 DE=-1.29D-04 OVMax= 2.72D-02

 Cycle   5  Pass 0  IDiag  1:
 E= -165.222834592420     Delta-E=       -0.003342933550 Rises=F Damp=F
 DIIS: error= 2.04D-03 at cycle   5 NSaved=   5.
 NSaved= 5 IEnMin= 5 EnMin= -165.222834592420     IErMin= 5 ErrMin= 2.04D-03
 ErrMax= 2.04D-03 EMaxC= 1.00D-01 BMatC= 7.05D-04 BMatP= 1.59D-02
 IDIUse=3 WtCom= 9.80D-01 WtEn= 2.04D-02
 Coeff-Com: -0.949D-02-0.348D-02 0.165D+00 0.219D+00 0.629D+00
 Coeff-En:   0.000D+00 0.000D+00 0.000D+00 0.000D+00 0.100D+01
 Coeff:     -0.930D-02-0.341D-02 0.162D+00 0.215D+00 0.636D+00
 Gap=     0.181 Goal=   None    Shift=    0.000
 Gap=     0.243 Goal=   None    Shift=    0.000
 RMSDP=2.85D-04 MaxDP=4.85D-03 DE=-3.34D-03 OVMax= 1.62D-02

 Cycle   6  Pass 0  IDiag  1:
 E= -165.223063724144     Delta-E=       -0.000229131724 Rises=F Damp=F
 DIIS: error= 8.37D-04 at cycle   6 NSaved=   6.
 NSaved= 6 IEnMin= 6 EnMin= -165.223063724144     IErMin= 6 ErrMin= 8.37D-04
 ErrMax= 8.37D-04 EMaxC= 1.00D-01 BMatC= 9.66D-05 BMatP= 7.05D-04
 IDIUse=3 WtCom= 9.92D-01 WtEn= 8.37D-03
 Coeff-Com: -0.788D-02-0.111D-01-0.753D-01-0.838D-01 0.139D+00 0.104D+01
 Coeff-En:   0.000D+00 0.000D+00 0.000D+00 0.000D+00 0.000D+00 0.100D+01
 Coeff:     -0.781D-02-0.111D-01-0.747D-01-0.831D-01 0.138D+00 0.104D+01
 Gap=     0.181 Goal=   None    Shift=    0.000
 Gap=     0.246 Goal=   None    Shift=    0.000
 RMSDP=1.28D-04 MaxDP=1.79D-03 DE=-2.29D-04 OVMax= 7.28D-03

 Cycle   7  Pass 0  IDiag  1:
 E= -165.223118289687     Delta-E=       -0.000054565543 Rises=F Damp=F
 DIIS: error= 1.70D-04 at cycle   7 NSaved=   7.
 NSaved= 7 IEnMin= 7 EnMin= -165.223118289687     IErMin= 7 ErrMin= 1.70D-04
 ErrMax= 1.70D-04 EMaxC= 1.00D-01 BMatC= 5.00D-06 BMatP= 9.66D-05
 IDIUse=3 WtCom= 9.98D-01 WtEn= 1.70D-03
 Coeff-Com: -0.633D-03 0.120D-02-0.261D-01-0.334D-01-0.793D-01 0.152D+00
 Coeff-Com:  0.986D+00
 Coeff-En:   0.000D+00 0.000D+00 0.000D+00 0.000D+00 0.000D+00 0.000D+00
 Coeff-En:   0.100D+01
 Coeff:     -0.632D-03 0.120D-02-0.261D-01-0.333D-01-0.792D-01 0.152D+00
 Coeff:      0.986D+00
 Gap=     0.182 Goal=   None    Shift=    0.000
 Gap=     0.247 Goal=   None    Shift=    0.000
 RMSDP=5.32D-05 MaxDP=9.43D-04 DE=-5.46D-05 OVMax= 2.63D-03

 Cycle   8  Pass 0  IDiag  1:
 E= -165.223122534261     Delta-E=       -0.000004244575 Rises=F Damp=F
 DIIS: error= 5.62D-05 at cycle   8 NSaved=   8.
 NSaved= 8 IEnMin= 8 EnMin= -165.223122534261     IErMin= 8 ErrMin= 5.62D-05
 ErrMax= 5.62D-05 EMaxC= 1.00D-01 BMatC= 2.56D-07 BMatP= 5.00D-06
 IDIUse=1 WtCom= 1.00D+00 WtEn= 0.00D+00
 Coeff-Com:  0.416D-03 0.711D-03 0.453D-02 0.236D-02-0.788D-02-0.536D-01
 Coeff-Com: -0.151D-01 0.107D+01
 Coeff:      0.416D-03 0.711D-03 0.453D-02 0.236D-02-0.788D-02-0.536D-01
 Coeff:     -0.151D-01 0.107D+01
 Gap=     0.182 Goal=   None    Shift=    0.000
 Gap=     0.247 Goal=   None    Shift=    0.000
 RMSDP=1.14D-05 MaxDP=1.53D-04 DE=-4.24D-06 OVMax= 5.19D-04

 Cycle   9  Pass 0  IDiag  1:
 E= -165.223122797591     Delta-E=       -0.000000263330 Rises=F Damp=F
 DIIS: error= 1.52D-05 at cycle   9 NSaved=   9.
 NSaved= 9 IEnMin= 9 EnMin= -165.223122797591     IErMin= 9 ErrMin= 1.52D-05
 ErrMax= 1.52D-05 EMaxC= 1.00D-01 BMatC= 2.55D-08 BMatP= 2.56D-07
 IDIUse=1 WtCom= 1.00D+00 WtEn= 0.00D+00
 Coeff-Com: -0.431D-07 0.105D-03 0.239D-02 0.287D-02 0.733D-02-0.154D-01
 Coeff-Com: -0.867D-01 0.217D-01 0.107D+01
 Coeff:     -0.431D-07 0.105D-03 0.239D-02 0.287D-02 0.733D-02-0.154D-01
 Coeff:     -0.867D-01 0.217D-01 0.107D+01
 Gap=     0.182 Goal=   None    Shift=    0.000
 Gap=     0.247 Goal=   None    Shift=    0.000
 RMSDP=3.93D-06 MaxDP=3.87D-05 DE=-2.63D-07 OVMax= 1.78D-04

 Initial convergence to 1.0D-05 achieved.  Increase integral accuracy.
 Cycle  10  Pass 1  IDiag  1:
 E= -165.223120953147     Delta-E=        0.000001844444 Rises=F Damp=F
 DIIS: error= 2.49D-04 at cycle   1 NSaved=   1.
 NSaved= 1 IEnMin= 1 EnMin= -165.223120953147     IErMin= 1 ErrMin= 2.49D-04
 ErrMax= 2.49D-04 EMaxC= 1.00D-01 BMatC= 2.22D-05 BMatP= 2.22D-05
 IDIUse=3 WtCom= 9.98D-01 WtEn= 2.49D-03
 Coeff-Com:  0.100D+01
 Coeff-En:   0.100D+01
 Coeff:      0.100D+01
 Gap=     0.182 Goal=   None    Shift=    0.000
 Gap=     0.247 Goal=   None    Shift=    0.000
 RMSDP=3.93D-06 MaxDP=3.87D-05 DE= 1.84D-06 OVMax= 6.74D-04

 Cycle  11  Pass 1  IDiag  1:
 E= -165.223125224002     Delta-E=       -0.000004270855 Rises=F Damp=F
 DIIS: error= 2.29D-05 at cycle   2 NSaved=   2.
 NSaved= 2 IEnMin= 2 EnMin= -165.223125224002     IErMin= 2 ErrMin= 2.29D-05
 ErrMax= 2.29D-05 EMaxC= 1.00D-01 BMatC= 1.41D-07 BMatP= 2.22D-05
 IDIUse=1 WtCom= 1.00D+00 WtEn= 0.00D+00
 Coeff-Com:  0.117D-01 0.988D+00
 Coeff:      0.117D-01 0.988D+00
 Gap=     0.182 Goal=   None    Shift=    0.000
 Gap=     0.247 Goal=   None    Shift=    0.000
 RMSDP=6.21D-06 MaxDP=1.02D-04 DE=-4.27D-06 OVMax= 9.86D-05

 Cycle  12  Pass 1  IDiag  1:
 E= -165.223125206626     Delta-E=        0.000000017375 Rises=F Damp=F
 DIIS: error= 3.47D-05 at cycle   3 NSaved=   3.
 NSaved= 3 IEnMin= 2 EnMin= -165.223125224002     IErMin= 2 ErrMin= 2.29D-05
 ErrMax= 3.47D-05 EMaxC= 1.00D-01 BMatC= 3.01D-07 BMatP= 1.41D-07
 IDIUse=1 WtCom= 1.00D+00 WtEn= 0.00D+00
 Coeff-Com:  0.122D-02 0.614D+00 0.385D+00
 Coeff:      0.122D-02 0.614D+00 0.385D+00
 Gap=     0.182 Goal=   None    Shift=    0.000
 Gap=     0.247 Goal=   None    Shift=    0.000
 RMSDP=2.83D-06 MaxDP=3.90D-05 DE= 1.74D-08 OVMax= 9.03D-05

 Cycle  13  Pass 1  IDiag  1:
 E= -165.223125253228     Delta-E=       -0.000000046602 Rises=F Damp=F
 DIIS: error= 2.10D-05 at cycle   4 NSaved=   4.
 NSaved= 4 IEnMin= 4 EnMin= -165.223125253228     IErMin= 4 ErrMin= 2.10D-05
 ErrMax= 2.10D-05 EMaxC= 1.00D-01 BMatC= 4.57D-08 BMatP= 1.41D-07
 IDIUse=1 WtCom= 1.00D+00 WtEn= 0.00D+00
 Coeff-Com: -0.216D-02 0.143D+00 0.271D+00 0.588D+00
 Coeff:     -0.216D-02 0.143D+00 0.271D+00 0.588D+00
 Gap=     0.182 Goal=   None    Shift=    0.000
 Gap=     0.247 Goal=   None    Shift=    0.000
 RMSDP=1.79D-06 MaxDP=1.98D-05 DE=-4.66D-08 OVMax= 8.15D-05

 Cycle  14  Pass 1  IDiag  1:
 E= -165.223125260249     Delta-E=       -0.000000007021 Rises=F Damp=F
 DIIS: error= 1.18D-05 at cycle   5 NSaved=   5.
 NSaved= 5 IEnMin= 5 EnMin= -165.223125260249     IErMin= 5 ErrMin= 1.18D-05
 ErrMax= 1.18D-05 EMaxC= 1.00D-01 BMatC= 1.60D-08 BMatP= 4.57D-08
 IDIUse=1 WtCom= 1.00D+00 WtEn= 0.00D+00
 Coeff-Com: -0.184D-02-0.514D-02 0.120D+00 0.445D+00 0.442D+00
 Coeff:     -0.184D-02-0.514D-02 0.120D+00 0.445D+00 0.442D+00
 Gap=     0.182 Goal=   None    Shift=    0.000
 Gap=     0.247 Goal=   None    Shift=    0.000
 RMSDP=6.77D-07 MaxDP=6.73D-06 DE=-7.02D-09 OVMax= 2.41D-05

 Cycle  15  Pass 1  IDiag  1:
 E= -165.223125264003     Delta-E=       -0.000000003754 Rises=F Damp=F
 DIIS: error= 1.71D-06 at cycle   6 NSaved=   6.
 NSaved= 6 IEnMin= 6 EnMin= -165.223125264003     IErMin= 6 ErrMin= 1.71D-06
 ErrMax= 1.71D-06 EMaxC= 1.00D-01 BMatC= 5.29D-10 BMatP= 1.60D-08
 IDIUse=1 WtCom= 1.00D+00 WtEn= 0.00D+00
 Coeff-Com: -0.670D-03-0.158D-01 0.278D-01 0.151D+00 0.185D+00 0.652D+00
 Coeff:     -0.670D-03-0.158D-01 0.278D-01 0.151D+00 0.185D+00 0.652D+00
 Gap=     0.182 Goal=   None    Shift=    0.000
 Gap=     0.247 Goal=   None    Shift=    0.000
 RMSDP=1.90D-07 MaxDP=2.88D-06 DE=-3.75D-09 OVMax= 9.53D-06

 Cycle  16  Pass 1  IDiag  1:
 E= -165.223125264192     Delta-E=       -0.000000000188 Rises=F Damp=F
 DIIS: error= 6.79D-07 at cycle   7 NSaved=   7.
 NSaved= 7 IEnMin= 7 EnMin= -165.223125264192     IErMin= 7 ErrMin= 6.79D-07
 ErrMax= 6.79D-07 EMaxC= 1.00D-01 BMatC= 1.02D-10 BMatP= 5.29D-10
 IDIUse=1 WtCom= 1.00D+00 WtEn= 0.00D+00
 Coeff-Com:  0.250D-03-0.628D-02-0.173D-01-0.581D-01-0.619D-01 0.191D+00
 Coeff-Com:  0.953D+00
 Coeff:      0.250D-03-0.628D-02-0.173D-01-0.581D-01-0.619D-01 0.191D+00
 Coeff:      0.953D+00
 Gap=     0.182 Goal=   None    Shift=    0.000
 Gap=     0.247 Goal=   None    Shift=    0.000
 RMSDP=1.58D-07 MaxDP=2.57D-06 DE=-1.88D-10 OVMax= 7.53D-06

 Cycle  17  Pass 1  IDiag  1:
 E= -165.223125264259     Delta-E=       -0.000000000067 Rises=F Damp=F
 DIIS: error= 2.30D-07 at cycle   8 NSaved=   8.
 NSaved= 8 IEnMin= 8 EnMin= -165.223125264259     IErMin= 8 ErrMin= 2.30D-07
 ErrMax= 2.30D-07 EMaxC= 1.00D-01 BMatC= 8.55D-12 BMatP= 1.02D-10
 IDIUse=1 WtCom= 1.00D+00 WtEn= 0.00D+00
 Coeff-Com:  0.159D-03 0.210D-02-0.490D-02-0.336D-01-0.415D-01-0.669D-01
 Coeff-Com:  0.659D-01 0.108D+01
 Coeff:      0.159D-03 0.210D-02-0.490D-02-0.336D-01-0.415D-01-0.669D-01
 Coeff:      0.659D-01 0.108D+01
 Gap=     0.182 Goal=   None    Shift=    0.000
 Gap=     0.247 Goal=   None    Shift=    0.000
 RMSDP=7.78D-08 MaxDP=9.26D-07 DE=-6.68D-11 OVMax= 3.82D-06

 Cycle  18  Pass 1  IDiag  1:
 E= -165.223125264272     Delta-E=       -0.000000000013 Rises=F Damp=F
 DIIS: error= 9.62D-08 at cycle   9 NSaved=   9.
 NSaved= 9 IEnMin= 9 EnMin= -165.223125264272     IErMin= 9 ErrMin= 9.62D-08
 ErrMax= 9.62D-08 EMaxC= 1.00D-01 BMatC= 1.08D-12 BMatP= 8.55D-12
 IDIUse=1 WtCom= 1.00D+00 WtEn= 0.00D+00
 Coeff-Com: -0.119D-04 0.457D-03 0.956D-03 0.387D-02 0.585D-03-0.127D-01
 Coeff-Com: -0.100D+00 0.609D-01 0.105D+01
 Coeff:     -0.119D-04 0.457D-03 0.956D-03 0.387D-02 0.585D-03-0.127D-01
 Coeff:     -0.100D+00 0.609D-01 0.105D+01
 Gap=     0.182 Goal=   None    Shift=    0.000
 Gap=     0.247 Goal=   None    Shift=    0.000
 RMSDP=2.55D-08 MaxDP=3.29D-07 DE=-1.31D-11 OVMax= 1.24D-06

 Cycle  19  Pass 1  IDiag  1:
 E= -165.223125264273     Delta-E=       -0.000000000001 Rises=F Damp=F
 DIIS: error= 3.64D-08 at cycle  10 NSaved=  10.
 NSaved=10 IEnMin=10 EnMin= -165.223125264273     IErMin=10 ErrMin= 3.64D-08
 ErrMax= 3.64D-08 EMaxC= 1.00D-01 BMatC= 1.46D-13 BMatP= 1.08D-12
 IDIUse=1 WtCom= 1.00D+00 WtEn= 0.00D+00
 Coeff-Com: -0.175D-04-0.269D-03 0.654D-03 0.444D-02 0.405D-02 0.902D-02
 Coeff-Com: -0.159D-02-0.137D+00-0.104D+00 0.122D+01
 Coeff:     -0.175D-04-0.269D-03 0.654D-03 0.444D-02 0.405D-02 0.902D-02
 Coeff:     -0.159D-02-0.137D+00-0.104D+00 0.122D+01
 Gap=     0.182 Goal=   None    Shift=    0.000
 Gap=     0.247 Goal=   None    Shift=    0.000
 RMSDP=1.08D-08 MaxDP=1.42D-07 DE=-9.95D-13 OVMax= 4.83D-07

 Cycle  20  Pass 1  IDiag  1:
 E= -165.223125264272     Delta-E=        0.000000000000 Rises=F Damp=F
 DIIS: error= 1.43D-08 at cycle  11 NSaved=  11.
 NSaved=11 IEnMin=10 EnMin= -165.223125264273     IErMin=11 ErrMin= 1.43D-08
 ErrMax= 1.43D-08 EMaxC= 1.00D-01 BMatC= 2.09D-14 BMatP= 1.46D-13
 IDIUse=1 WtCom= 1.00D+00 WtEn= 0.00D+00
 Coeff-Com:  0.944D-06-0.841D-04-0.795D-04-0.551D-03-0.626D-04 0.192D-02
 Coeff-Com:  0.179D-01-0.182D-01-0.158D+00 0.543D-01 0.110D+01
 Coeff:      0.944D-06-0.841D-04-0.795D-04-0.551D-03-0.626D-04 0.192D-02
 Coeff:      0.179D-01-0.182D-01-0.158D+00 0.543D-01 0.110D+01
 Gap=     0.182 Goal=   None    Shift=    0.000
 Gap=     0.247 Goal=   None    Shift=    0.000
 RMSDP=3.85D-09 MaxDP=4.76D-08 DE= 4.55D-13 OVMax= 1.59D-07

 SCF Done:  E(UM06) =  -165.223125264     A.U. after   20 cycles
             Convg  =    0.3852D-08             -V/T =  2.0020
 <Sx>= 0.0000 <Sy>= 0.0000 <Sz>= 0.5000 <S**2>= 0.7602 S= 0.5051
 <L.S>=  0.00000000000    
 KE= 1.648955915026D+02 PE=-5.195220689647D+02 EE= 1.228515490431D+02
 Annihilation of the first spin contaminant:
 S**2 before annihilation     0.7602,   after     0.7500
 Leave Link  502 at Tue Apr 29 14:50:20 2014, MaxMem=   65536000 cpu:      17.1
 (Enter /apps/gaussian/g09/l801.exe)
 Range of M.O.s used for correlation:     1    66
 NBasis=    66 NAE=    12 NBE=    11 NFC=     0 NFV=     0
 NROrb=     66 NOA=    12 NOB=    11 NVA=    54 NVB=    55

 **** Warning!!: The largest alpha MO coefficient is  0.10007372D+02


 **** Warning!!: The largest beta MO coefficient is  0.10013937D+02

 Leave Link  801 at Tue Apr 29 14:50:20 2014, MaxMem=   65536000 cpu:       0.1
 (Enter /apps/gaussian/g09/l1101.exe)
 Using compressed storage, NAtomX=     5.
 Will process   6 centers per pass.
 Leave Link 1101 at Tue Apr 29 14:50:20 2014, MaxMem=   65536000 cpu:       1.2
 (Enter /apps/gaussian/g09/l1102.exe)
 Symmetrizing basis deriv contribution to polar:
 IMax=3 JMax=2 DiffMx= 0.00D+00
 Leave Link 1102 at Tue Apr 29 14:50:20 2014, MaxMem=   65536000 cpu:       0.3
 (Enter /apps/gaussian/g09/l1110.exe)
 Forming Gx(P) for the SCF density, NAtomX=     5.
 Integral derivatives from FoFDir/FoFCou, PRISM(SPDF).
 Do as many integral derivatives as possible in FoFDir.
 G2DrvN: MDV=      65535856.
 G2DrvN: will do     6 centers at a time, making    1 passes doing MaxLOS=2.
 Calling FoFCou, ICntrl=  3107 FMM=F I1Cent=   0 AccDes= 0.00D+00.
 FoFCou: FMM=F IPFlag=           0 FMFlag=      100000 FMFlg1=           0
         NFxFlg=           0 DoJE=F BraDBF=F KetDBF=F FulRan=T
         Omega=  0.000000  0.000000  1.000000  0.000000  0.000000 ICntrl=    3107 IOpCl=  1
         NMat0=    1 NMatS0=    1 NMatT0=    0 NMatD0=    1 NMtDS0=    0 NMtDT0=    0
         I1Cent=           0 NGrid=           0.
 Symmetry not used in FoFCou.
 FoFDir/FoFCou used for L=0 through L=2.
 End of G2Drv Frequency-dependent properties file   721 does not exist.
 End of G2Drv Frequency-dependent properties file   722 does not exist.
 Leave Link 1110 at Tue Apr 29 14:50:22 2014, MaxMem=   65536000 cpu:      17.9
 (Enter /apps/gaussian/g09/l1002.exe)
 Minotr:  UHF open shell wavefunction.
          IDoAtm=11111
          Direct CPHF calculation.
          Differentiating once with respect to electric field.
                with respect to dipole field.
          Differentiating once with respect to nuclear coordinates.
          Requested convergence is 1.0D-08 RMS, and 1.0D-07 maximum.
          Secondary convergence is 1.0D-12 RMS, and 1.0D-12 maximum.
          NewPWx=T KeepS1=F KeepF1=F KeepIn=T MapXYZ=F SortEE=F KeepMc=T.
          MDV=      65535946 using IRadAn=       2.
 Generate precomputed XC quadrature information.
          Keep R1 and R2 ints in memory in canonical form, NReq=6656460.
 Symmetry not used in FoFDir.
 MinBra= 0 MaxBra= 2 Meth= 1.
 IRaf=       0 NMat=   1 IRICut=       1 DoRegI=T DoRafI=F ISym2E= 0 JSym2E=0.
          Solving linear equations simultaneously, MaxMat=       0.
          There are    18 degrees of freedom in the 1st order CPHF.  IDoFFX=5.
     15 vectors produced by pass  0 Test12= 6.96D-15 5.56D-09 XBig12= 1.75D+02 6.27D+00.
 AX will form    15 AO Fock derivatives at one time.
     15 vectors produced by pass  1 Test12= 6.96D-15 5.56D-09 XBig12= 6.77D+01 1.56D+00.
     15 vectors produced by pass  2 Test12= 6.96D-15 5.56D-09 XBig12= 1.21D+00 2.37D-01.
     15 vectors produced by pass  3 Test12= 6.96D-15 5.56D-09 XBig12= 2.51D-02 3.60D-02.
     15 vectors produced by pass  4 Test12= 6.96D-15 5.56D-09 XBig12= 3.23D-04 3.49D-03.
     15 vectors produced by pass  5 Test12= 6.96D-15 5.56D-09 XBig12= 3.64D-06 4.77D-04.
     13 vectors produced by pass  6 Test12= 6.96D-15 5.56D-09 XBig12= 2.35D-08 2.54D-05.
      6 vectors produced by pass  7 Test12= 6.96D-15 5.56D-09 XBig12= 7.21D-11 1.30D-06.
      2 vectors produced by pass  8 Test12= 6.96D-15 5.56D-09 XBig12= 2.46D-13 7.71D-08.
 Inverted reduced A of dimension   111 with in-core refinement.
 FullF1:  Do perturbations    1 to     3.
 Isotropic polarizability for W=    0.000000       27.76 Bohr**3.
 End of Minotr Frequency-dependent properties file   721 does not exist.
 End of Minotr Frequency-dependent properties file   722 does not exist.
 Leave Link 1002 at Tue Apr 29 14:50:24 2014, MaxMem=   65536000 cpu:      23.2
 (Enter /apps/gaussian/g09/l601.exe)
 Copying SCF densities to generalized density rwf, IOpCl= 1 IROHF=0.

 **********************************************************************

            Population analysis using the SCF density.

 **********************************************************************

 Orbital symmetries:
 Alpha Orbitals:
       Occupied  (A) (A) (A) (A) (A) (A) (A) (A) (A) (A) (A) (A)
       Virtual   (A) (A) (A) (A) (A) (A) (A) (A) (A) (A) (A) (A)
                 (A) (A) (A) (A) (A) (A) (A) (A) (A) (A) (A) (A)
                 (A) (A) (A) (A) (A) (A) (A) (A) (A) (A) (A) (A)
                 (A) (A) (A) (A) (A) (A) (A) (A) (A) (A) (A) (A)
                 (A) (A) (A) (A) (A) (A)
 Beta  Orbitals:
       Occupied  (A) (A) (A) (A) (A) (A) (A) (A) (A) (A) (A)
       Virtual   (A) (A) (A) (A) (A) (A) (A) (A) (A) (A) (A) (A)
                 (A) (A) (A) (A) (A) (A) (A) (A) (A) (A) (A) (A)
                 (A) (A) (A) (A) (A) (A) (A) (A) (A) (A) (A) (A)
                 (A) (A) (A) (A) (A) (A) (A) (A) (A) (A) (A) (A)
                 (A) (A) (A) (A) (A) (A) (A)
 The electronic state is 2-A.
 Alpha  occ. eigenvalues --  -14.57014 -14.47250 -14.45699  -1.17615  -1.00930
 Alpha  occ. eigenvalues --   -0.65556  -0.55919  -0.54564  -0.48163  -0.38939
 Alpha  occ. eigenvalues --   -0.32317  -0.21978
 Alpha virt. eigenvalues --   -0.03776   0.00712   0.03812   0.22319   0.25913
 Alpha virt. eigenvalues --    0.36479   0.41928   0.45517   0.50105   0.52853
 Alpha virt. eigenvalues --    0.60196   0.64567   0.67534   0.68822   0.74218
 Alpha virt. eigenvalues --    0.77581   0.91411   1.02132   1.12053   1.21943
 Alpha virt. eigenvalues --    1.36140   1.40105   1.44266   1.50313   1.64809
 Alpha virt. eigenvalues --    1.66001   1.70584   1.83333   1.85785   2.07413
 Alpha virt. eigenvalues --    2.10099   2.16944   2.23790   2.35313   2.38737
 Alpha virt. eigenvalues --    2.46749   2.47373   2.65924   2.85141   3.02614
 Alpha virt. eigenvalues --    3.17463   3.48308   3.51333   3.62957   3.87408
 Alpha virt. eigenvalues --    3.90047   3.90619   4.08041   4.27266   4.36066
 Alpha virt. eigenvalues --    5.03096  34.96377  35.46652  36.16499
  Beta  occ. eigenvalues --  -14.56989 -14.46942 -14.45553  -1.17073  -1.00394
  Beta  occ. eigenvalues --   -0.65391  -0.54761  -0.54338  -0.47248  -0.36799
  Beta  occ. eigenvalues --   -0.31315
  Beta virt. eigenvalues --   -0.06596  -0.02411   0.02146   0.05097   0.22752
  Beta virt. eigenvalues --    0.36097   0.38555   0.41828   0.45617   0.50115
  Beta virt. eigenvalues --    0.53839   0.60429   0.65099   0.67885   0.68850
  Beta virt. eigenvalues --    0.74215   0.78332   0.91862   1.02733   1.12379
  Beta virt. eigenvalues --    1.22685   1.40410   1.45256   1.45825   1.52410
  Beta virt. eigenvalues --    1.65441   1.66572   1.71175   1.84224   1.90116
  Beta virt. eigenvalues --    2.08185   2.10958   2.21138   2.24697   2.37951
  Beta virt. eigenvalues --    2.39123   2.47494   2.62725   2.66632   2.85225
  Beta virt. eigenvalues --    3.03532   3.17890   3.48148   3.51659   3.63473
  Beta virt. eigenvalues --    3.87275   3.90654   3.91467   4.08018   4.27036
  Beta virt. eigenvalues --    4.36263   5.03102  34.96680  35.46893  36.16776
     Alpha Molecular Orbital Coefficients:
                           1         2         3         4         5
                           O         O         O         O         O
     Eigenvalues --   -14.57014 -14.47250 -14.45699  -1.17615  -1.00930
   1 1   N  1S          0.55747  -0.00329  -0.00116  -0.10523  -0.00590
   2        2S          0.46462  -0.00210  -0.00070  -0.16322  -0.00970
   3        2PX        -0.00025   0.00104  -0.00077   0.03181  -0.17827
   4        2PY         0.00023   0.00017  -0.00001   0.01465  -0.01914
   5        2PZ        -0.00015   0.00002  -0.00007  -0.00303  -0.00729
   6        3S          0.01830  -0.00281  -0.00091   0.46327   0.03309
   7        3PX         0.00237  -0.00575   0.00283   0.03136  -0.23677
   8        3PY         0.00086  -0.00099   0.00002   0.01756  -0.02471
   9        3PZ        -0.00013  -0.00010   0.00024  -0.00439  -0.00976
  10        4S         -0.00354   0.00345   0.00206   0.21094   0.02606
  11        4PX         0.00055   0.00778  -0.00805  -0.00636  -0.06743
  12        4PY        -0.00020   0.00092  -0.00023   0.00365  -0.01031
  13        4PZ         0.00007   0.00035  -0.00036  -0.00125  -0.00167
  14        5D 0       -0.00235   0.00136   0.00069  -0.01216  -0.00138
  15        5D+1        0.00039  -0.00003  -0.00034   0.00187   0.00115
  16        5D-1        0.00003  -0.00001   0.00002  -0.00064  -0.00019
  17        5D+2        0.00394  -0.00218  -0.00126   0.01946   0.00281
  18        5D-2        0.00091  -0.00094   0.00010   0.00464  -0.00246
  19 2   N  1S          0.00307   0.55742   0.00067  -0.06739   0.06535
  20        2S          0.00332   0.46515   0.00058  -0.10380   0.10187
  21        2PX        -0.00079  -0.00179  -0.00008  -0.08168   0.06877
  22        2PY        -0.00018  -0.00036   0.00003  -0.01533   0.01580
  23        2PZ         0.00001  -0.00002  -0.00003  -0.00121   0.00004
  24        3S         -0.00316   0.01694  -0.00002   0.28984  -0.28805
  25        3PX         0.00551  -0.00408   0.00011  -0.10849   0.08942
  26        3PY         0.00120  -0.00078  -0.00015  -0.01982   0.02153
  27        3PZ        -0.00000  -0.00005   0.00010  -0.00179  -0.00031
  28        4S         -0.00102  -0.01184   0.00527   0.11436  -0.13892
  29        4PX        -0.00028   0.00400  -0.00172  -0.02241   0.02493
  30        4PY         0.00004   0.00097  -0.00066  -0.00552   0.00607
  31        4PZ        -0.00003  -0.00004  -0.00002   0.00012  -0.00022
  32        5D 0        0.00157  -0.00125   0.00004  -0.00887   0.00800
  33        5D+1        0.00002   0.00007  -0.00007   0.00050   0.00019
  34        5D-1        0.00001   0.00001  -0.00002  -0.00018   0.00023
  35        5D+2       -0.00244   0.00200  -0.00015   0.01344  -0.01119
  36        5D-2       -0.00116   0.00077   0.00016   0.00521  -0.00628
  37 3   N  1S          0.00109  -0.00066   0.55760  -0.04653  -0.08523
  38        2S          0.00126  -0.00054   0.46504  -0.07168  -0.13260
  39        2PX         0.00089   0.00013   0.00132   0.04733   0.05880
  40        2PY         0.00006   0.00006  -0.00068  -0.00450  -0.01632
  41        2PZ         0.00001  -0.00002   0.00092   0.01059   0.02364
  42        3S         -0.00100  -0.00004   0.01676   0.19937   0.37237
  43        3PX        -0.00373  -0.00029   0.00059   0.06941   0.09253
  44        3PY        -0.00032  -0.00020  -0.00076  -0.00505  -0.02351
  45        3PZ         0.00002   0.00008   0.00103   0.01453   0.03452
  46        4S          0.00054   0.00391  -0.01259   0.07641   0.21024
  47        4PX         0.00101   0.00180  -0.00334   0.00178   0.02225
  48        4PY         0.00009  -0.00004  -0.00010  -0.00545  -0.00679
  49        4PZ         0.00005   0.00011  -0.00105   0.00707   0.01478
  50        5D 0        0.00101   0.00006  -0.00051  -0.00488  -0.00778
  51        5D+1       -0.00066   0.00005  -0.00022   0.00232   0.00441
  52        5D-1       -0.00020  -0.00000  -0.00053  -0.00156  -0.00380
  53        5D+2       -0.00187  -0.00012   0.00079   0.00839   0.01332
  54        5D-2        0.00041  -0.00017   0.00048  -0.00018  -0.00217
  55 4   H  1S         -0.00030  -0.00002  -0.00007   0.02135   0.05619
  56        2S         -0.00077   0.00002  -0.00136   0.01894   0.05315
  57        3S          0.00071   0.00044   0.00136  -0.01165  -0.00930
  58        4PX        -0.00019   0.00011  -0.00078   0.00462   0.00921
  59        4PY        -0.00052   0.00001  -0.00130   0.00347   0.00902
  60        4PZ         0.00046   0.00000   0.00131  -0.00288  -0.00810
  61 5   H  1S          0.00009   0.00003  -0.00008   0.00183   0.00598
  62        2S         -0.00026  -0.00012   0.00051   0.00419   0.00555
  63        3S          0.00027   0.00016   0.00024  -0.00310  -0.00044
  64        4PX        -0.00003  -0.00001   0.00032   0.00028  -0.00012
  65        4PY         0.00002  -0.00001  -0.00032  -0.00027  -0.00073
  66        4PZ        -0.00001  -0.00000  -0.00004  -0.00010  -0.00011
                           6         7         8         9        10
                           O         O         O         O         O
     Eigenvalues --    -0.65556  -0.55919  -0.54564  -0.48163  -0.38939
   1 1   N  1S          0.04224   0.02558  -0.01754   0.02772   0.00591
   2        2S          0.06737   0.04132  -0.02824   0.04474   0.00968
   3        2PX         0.09569  -0.00696  -0.02621  -0.12033   0.02498
   4        2PY        -0.03217   0.20840   0.03368  -0.04289  -0.06944
   5        2PZ         0.05147  -0.01269   0.21540   0.02473   0.03574
   6        3S         -0.20919  -0.12704   0.08726  -0.14227  -0.03365
   7        3PX         0.13303  -0.01321  -0.03900  -0.16319   0.03171
   8        3PY        -0.05089   0.32165   0.05263  -0.06242  -0.10549
   9        3PZ         0.07938  -0.01871   0.33156   0.03799   0.05502
  10        4S         -0.21330  -0.13790   0.09281  -0.16853  -0.01445
  11        4PX         0.07410   0.01903  -0.02841  -0.13022   0.12305
  12        4PY        -0.03313   0.22294   0.03047  -0.05330  -0.07696
  13        4PZ         0.04492  -0.02001   0.23308   0.03305   0.04334
  14        5D 0       -0.00126  -0.00019  -0.00234  -0.00029   0.00166
  15        5D+1       -0.00573  -0.00098   0.00507   0.00365   0.01589
  16        5D-1        0.00126  -0.00152   0.00424   0.00107   0.00133
  17        5D+2        0.00224  -0.00799  -0.00025   0.00235   0.00654
  18        5D-2        0.00611   0.00113  -0.00024  -0.00195  -0.03598
  19 2   N  1S         -0.03166  -0.02148   0.01680  -0.07527   0.00007
  20        2S         -0.05014  -0.03443   0.02685  -0.11991  -0.00012
  21        2PX         0.00547  -0.00223  -0.02603   0.20879   0.02865
  22        2PY        -0.01893   0.12559   0.01994   0.02248  -0.13828
  23        2PZ         0.01967  -0.00709   0.13259   0.02539   0.05824
  24        3S          0.14591   0.10242  -0.07917   0.34096   0.00116
  25        3PX         0.00975  -0.00864  -0.03590   0.28216   0.04345
  26        3PY        -0.03000   0.19361   0.03184   0.02759  -0.20839
  27        3PZ         0.03157  -0.01112   0.20540   0.03824   0.08746
  28        4S          0.13424   0.08708  -0.08897   0.58382  -0.07985
  29        4PX        -0.00114   0.00555  -0.02019   0.14285   0.06613
  30        4PY        -0.01051   0.10195   0.01762   0.01040  -0.16280
  31        4PZ         0.01156  -0.00362   0.10851   0.02397   0.07357
  32        5D 0       -0.00030   0.00075  -0.00160   0.01273  -0.00082
  33        5D+1       -0.00659   0.00183  -0.03368  -0.00516  -0.00961
  34        5D-1       -0.00138  -0.00010  -0.00653  -0.00178  -0.00177
  35        5D+2       -0.00263   0.01047   0.00467  -0.02327  -0.00748
  36        5D-2        0.00585  -0.03047  -0.00495  -0.00513   0.02077
  37 3   N  1S         -0.04643  -0.02838   0.02367   0.00265  -0.02625
  38        2S         -0.07311  -0.04534   0.03775   0.00417  -0.04190
  39        2PX        -0.15728  -0.03962   0.03007   0.06839  -0.03789
  40        2PY        -0.07471   0.10303   0.02276  -0.00702   0.15402
  41        2PZ         0.06521  -0.00448   0.09880   0.00477  -0.07099
  42        3S          0.20222   0.13230  -0.11080  -0.00758   0.11677
  43        3PX        -0.22716  -0.05244   0.03981   0.10131  -0.05333
  44        3PY        -0.11109   0.15977   0.03588  -0.01260   0.22505
  45        3PZ         0.09886  -0.00435   0.15371   0.00799  -0.09978
  46        4S          0.26016   0.17807  -0.12858  -0.05603   0.29217
  47        4PX        -0.08013  -0.03183   0.02803   0.05791  -0.02294
  48        4PY        -0.05265   0.09130   0.02634  -0.00312   0.20127
  49        4PZ         0.05368   0.00726   0.08888  -0.00126  -0.07176
  50        5D 0        0.01100   0.00192   0.00893  -0.00273  -0.00080
  51        5D+1       -0.00512  -0.00405   0.02671   0.00790  -0.00394
  52        5D-1       -0.01232   0.00650  -0.00143   0.00049   0.01225
  53        5D+2       -0.02013   0.00140   0.00120   0.00660   0.00050
  54        5D-2        0.00270   0.02545   0.00240  -0.00713   0.00263
  55 4   H  1S          0.15916  -0.00607  -0.00667  -0.02790  -0.08880
  56        2S          0.19304  -0.01901  -0.00462  -0.03626  -0.15328
  57        3S          0.03551  -0.00176  -0.00360  -0.01421  -0.05010
  58        4PX         0.00509  -0.00709   0.00389   0.00358  -0.01536
  59        4PY         0.01493   0.00505   0.00252  -0.00219   0.00022
  60        4PZ        -0.01330   0.00199   0.00777   0.00159   0.00546
  61 5   H  1S          0.01656   0.03604  -0.00314  -0.01491   0.11347
  62        2S          0.02220   0.04984  -0.00658  -0.02608   0.17991
  63        3S          0.01131   0.02676  -0.00354  -0.01216   0.14891
  64        4PX        -0.00036   0.00211   0.00018  -0.00060   0.00124
  65        4PY        -0.00318  -0.00193   0.00108   0.00149  -0.00276
  66        4PZ         0.00028  -0.00027   0.00160   0.00021  -0.00091
                          11        12        13        14        15
                           O         O         V         V         V
     Eigenvalues --    -0.32317  -0.21978  -0.03776   0.00712   0.03812
   1 1   N  1S         -0.00595  -0.00940   0.00496   0.00238  -0.00908
   2        2S         -0.00978  -0.01535   0.00751   0.00387  -0.01468
   3        2PX        -0.01892  -0.01548  -0.01367  -0.02668  -0.01008
   4        2PY        -0.00631  -0.06677   0.14875   0.14938  -0.03459
   5        2PZ        -0.02693  -0.01275  -0.15096   0.17450   0.01951
   6        3S          0.03327   0.04417  -0.00364  -0.00999   0.02663
   7        3PX        -0.02787  -0.01927  -0.03708  -0.04410  -0.04498
   8        3PY        -0.00741  -0.10256   0.22845   0.23153  -0.05218
   9        3PZ        -0.03973  -0.02014  -0.23378   0.26994   0.02911
  10        4S          0.01678   0.07987  -0.20875  -0.05828   0.15118
  11        4PX         0.00346  -0.04190   0.13927  -0.05658   0.30576
  12        4PY        -0.01080  -0.12772   0.33985   0.35954  -0.08415
  13        4PZ        -0.03122  -0.02446  -0.32569   0.42255   0.07791
  14        5D 0       -0.00368   0.00231  -0.00111   0.00037   0.01331
  15        5D+1       -0.04823   0.00626   0.02121  -0.00763   0.00177
  16        5D-1       -0.00596   0.00284   0.00207  -0.00224  -0.00529
  17        5D+2        0.00433  -0.01255   0.00803   0.00500  -0.02197
  18        5D-2       -0.01677   0.03307  -0.01433  -0.00241  -0.01212
  19 2   N  1S          0.00017   0.00273  -0.00238  -0.00094   0.01302
  20        2S          0.00031   0.00473  -0.00425  -0.00157   0.02168
  21        2PX         0.02499  -0.00915   0.01168   0.01937   0.03815
  22        2PY        -0.05634   0.13457  -0.14424  -0.12165   0.04053
  23        2PZ        -0.16221   0.02098   0.15254  -0.14795  -0.02297
  24        3S         -0.00246  -0.02105   0.01958   0.00606  -0.09201
  25        3PX         0.03573  -0.01352   0.01355   0.02690   0.05594
  26        3PY        -0.08415   0.19791  -0.20797  -0.17302   0.06148
  27        3PZ        -0.24192   0.03008   0.21808  -0.20940  -0.03510
  28        4S          0.00033   0.03312  -0.09997   0.00405  -0.28050
  29        4PX         0.03307  -0.04214   0.07890   0.05494   0.13891
  30        4PY        -0.07909   0.23805  -0.32523  -0.31625   0.12194
  31        4PZ        -0.23157   0.03968   0.36039  -0.38696  -0.05915
  32        5D 0        0.00077   0.00097  -0.00104   0.00013  -0.00117
  33        5D+1        0.01927  -0.00080   0.00545  -0.00969  -0.00034
  34        5D-1        0.00399  -0.00009   0.00110  -0.00220  -0.00105
  35        5D+2       -0.00367   0.00074   0.00415   0.00385   0.00197
  36        5D-2        0.00530  -0.00727  -0.00509  -0.00844   0.00160
  37 3   N  1S          0.02508   0.03239   0.02248   0.00623   0.03456
  38        2S          0.04031   0.05215   0.03569   0.00993   0.05457
  39        2PX         0.02401   0.02903   0.07860   0.03048  -0.00529
  40        2PY         0.07072  -0.10648  -0.05804  -0.11920   0.12047
  41        2PZ         0.20527  -0.02710   0.03893  -0.11929  -0.07538
  42        3S         -0.12227  -0.16143  -0.08981  -0.02536  -0.14787
  43        3PX         0.03195   0.03152   0.11285   0.04161  -0.05201
  44        3PY         0.10515  -0.15472  -0.08100  -0.16792   0.15362
  45        3PZ         0.30080  -0.04537   0.04603  -0.16546  -0.09520
  46        4S         -0.15760  -0.29108  -0.25476  -0.11326  -0.56034
  47        4PX         0.04079   0.05572   0.24724   0.08292   0.26052
  48        4PY         0.12360  -0.19301  -0.11030  -0.30896   0.39085
  49        4PZ         0.33129  -0.04088   0.09070  -0.32659  -0.24367
  50        5D 0        0.01251  -0.00961  -0.00375  -0.00689  -0.00007
  51        5D+1        0.01460  -0.00203  -0.01689   0.01684  -0.00533
  52        5D-1       -0.00426  -0.00248  -0.00615   0.00074   0.00122
  53        5D+2        0.00362  -0.00390   0.00080  -0.00608   0.00437
  54        5D-2        0.00334  -0.02397   0.01514   0.00919   0.00993
  55 4   H  1S          0.03050   0.00183   0.08799  -0.00109   0.04474
  56        2S          0.04148  -0.00623   0.19069  -0.00802  -0.04752
  57        3S          0.01823   0.02714   0.33269   0.09588   1.55845
  58        4PX         0.00583   0.00394  -0.00181   0.00331  -0.01918
  59        4PY         0.01055  -0.00855  -0.00466  -0.01715  -0.01605
  60        4PZ         0.01651  -0.00294   0.00203  -0.01571   0.01759
  61 5   H  1S          0.06719   0.19851   0.03820   0.03488  -0.03651
  62        2S          0.10290   0.37679   0.07449   0.06176  -0.07838
  63        3S          0.09862   0.46242   0.13802   0.22456  -0.23569
  64        4PX        -0.00098  -0.00433  -0.00322  -0.00168  -0.00095
  65        4PY         0.00239   0.00436   0.00760   0.00767  -0.00451
  66        4PZ         0.00478   0.00260   0.00505  -0.00213  -0.00101
                          16        17        18        19        20
                           V         V         V         V         V
     Eigenvalues --     0.22319   0.25913   0.36479   0.41928   0.45517
   1 1   N  1S         -0.06645   0.02605  -0.00084   0.00860   0.04753
   2        2S         -0.10800   0.04376   0.00092   0.01908   0.08988
   3        2PX        -0.07533   0.03657   0.03700   0.14899  -0.06090
   4        2PY         0.03457  -0.05091  -0.04466   0.04790   0.03318
   5        2PZ        -0.02816  -0.00113   0.05025  -0.02330  -0.02283
   6        3S          0.26110  -0.15578  -0.07447  -0.22364  -0.64986
   7        3PX        -0.12391   0.03255   0.10042   0.23787  -0.05608
   8        3PY         0.05474  -0.09149  -0.08283   0.09681   0.11200
   9        3PZ        -0.03782  -0.00782   0.08330  -0.07850  -0.05851
  10        4S          2.57076  -0.78138   0.25327   1.26617  -1.88167
  11        4PX        -0.43629   0.48707   0.01903   4.94053  -1.73218
  12        4PY         0.23109  -0.05321  -0.25084   0.56410  -0.43819
  13        4PZ        -0.16894   0.08957   0.28568   0.26137   0.05981
  14        5D 0        0.03123  -0.00951   0.00664   0.00775   0.00573
  15        5D+1       -0.00880  -0.00160   0.01926  -0.00525  -0.00959
  16        5D-1        0.00130   0.00004  -0.02117   0.00914  -0.00043
  17        5D+2       -0.05313   0.01399  -0.01024  -0.01353  -0.01225
  18        5D-2       -0.01366  -0.00945  -0.01595   0.00615   0.00861
  19 2   N  1S          0.04368  -0.00666   0.01263   0.04594   0.00254
  20        2S          0.07412  -0.01048   0.02232   0.07839   0.01527
  21        2PX         0.14572  -0.03557   0.03173   0.02114   0.06516
  22        2PY        -0.00378  -0.00408   0.00339  -0.00751   0.00479
  23        2PZ         0.01917  -0.00056  -0.00105  -0.00292   0.01000
  24        3S         -0.29800   0.02046  -0.09951  -0.25813  -0.32437
  25        3PX         0.21772  -0.03466   0.05909   0.04108   0.33180
  26        3PY        -0.00159  -0.03328  -0.03763  -0.02144   0.07583
  27        3PZ         0.02594   0.00141   0.04043  -0.02189   0.01740
  28        4S         -0.57004  -0.04897  -0.09218  -4.78749   2.84921
  29        4PX         0.58071  -0.12527   0.10602   2.64390  -2.15635
  30        4PY        -0.03922   0.10927   0.22168   0.64724  -0.46603
  31        4PZ         0.08985  -0.03092  -0.20709   0.01460  -0.03370
  32        5D 0       -0.00102  -0.00116  -0.00081   0.00245   0.01986
  33        5D+1        0.00349   0.00076  -0.01003   0.00771   0.00758
  34        5D-1        0.00149   0.00067  -0.00477   0.00228   0.00010
  35        5D+2        0.00523  -0.00573  -0.00446  -0.00018  -0.02563
  36        5D-2       -0.00532   0.00733   0.00969  -0.00840  -0.02895
  37 3   N  1S          0.04538  -0.01650   0.02461  -0.01598   0.01102
  38        2S          0.07519  -0.02745   0.04385  -0.01976   0.02452
  39        2PX        -0.20708   0.04442   0.03455  -0.05450  -0.08771
  40        2PY        -0.02321   0.02914   0.07264  -0.04065  -0.04058
  41        2PZ         0.00771   0.01699  -0.09138   0.00252   0.02754
  42        3S         -0.23664   0.10088  -0.18010  -0.15966  -0.20497
  43        3PX        -0.30922   0.03926   0.01996  -0.26403  -0.39055
  44        3PY        -0.01511   0.07472   0.13686  -0.08551  -0.10720
  45        3PZ         0.00633   0.03132  -0.19854  -0.00233   0.07370
  46        4S         -1.21694   0.39133  -0.47933   4.21064  -0.48970
  47        4PX        -1.14216   0.64592   0.62309   2.47335   0.34646
  48        4PY        -0.14306  -0.14002   0.74275  -0.48810   0.25314
  49        4PZ        -0.05961  -0.01287  -0.60212   0.63552  -0.17317
  50        5D 0       -0.00577   0.01645  -0.00238   0.00852   0.01396
  51        5D+1       -0.00656   0.00573  -0.00689  -0.01476  -0.00394
  52        5D-1        0.00261  -0.00309  -0.01356  -0.00460   0.00612
  53        5D+2        0.01746  -0.00154  -0.01034  -0.02731  -0.03076
  54        5D-2        0.01627   0.00323   0.00600   0.00993   0.00211
  55 4   H  1S          0.01607  -0.00753   0.12850  -0.02833  -0.01562
  56        2S          0.15980   0.08412   1.96406  -0.82504  -0.02224
  57        3S         -0.59437  -0.18822  -0.90756   0.36052   0.05391
  58        4PX        -0.02770  -0.00048   0.03249  -0.00998   0.03398
  59        4PY         0.01984   0.02483  -0.00597  -0.02939   0.00439
  60        4PZ        -0.01379   0.01096   0.00015   0.01985  -0.00926
  61 5   H  1S         -0.03333  -0.11810   0.01804  -0.00021   0.00705
  62        2S         -0.34724  -1.22923   0.12526   0.11908   0.11632
  63        3S          0.43682   1.69821  -0.02722  -0.00761  -0.15192
  64        4PX        -0.00960   0.00814   0.02618   0.04500   0.03176
  65        4PY        -0.00361   0.00379   0.02685  -0.00078  -0.00031
  66        4PZ        -0.00339  -0.00149  -0.02632   0.02481  -0.00413
                          21        22        23        24        25
                           V         V         V         V         V
     Eigenvalues --     0.50105   0.52853   0.60196   0.64567   0.67534
   1 1   N  1S         -0.00614  -0.00178  -0.01520   0.03175   0.03987
   2        2S         -0.01174  -0.00313  -0.02976   0.06178   0.07711
   3        2PX        -0.02104   0.00510  -0.03603  -0.02303  -0.09882
   4        2PY        -0.04224  -0.10780  -0.00816  -0.07341   0.07106
   5        2PZ        -0.10767   0.02736   0.02824  -0.00803   0.01611
   6        3S          0.07584   0.02017   0.19915  -0.38905  -0.48808
   7        3PX        -0.02855   0.01985  -0.09178  -0.25031  -0.45893
   8        3PY        -0.15805  -0.45441  -0.02956  -0.25778   0.25357
   9        3PZ        -0.43735   0.12682   0.11235  -0.04326   0.03967
  10        4S         -0.33265  -0.16562  -0.73296   0.75451   0.48140
  11        4PX        -0.29458   0.28599   1.12867   0.11520   1.29280
  12        4PY         0.16338   0.68108   0.25694   0.38046  -0.59271
  13        4PZ         0.51373  -0.19856  -0.32519   0.15075  -0.14659
  14        5D 0        0.00817   0.00856   0.01160   0.00120  -0.00610
  15        5D+1       -0.00301   0.00152   0.06655   0.01476   0.01706
  16        5D-1       -0.00684   0.00848   0.02103  -0.00649   0.00276
  17        5D+2        0.00014   0.00742  -0.01423   0.00333   0.01318
  18        5D-2       -0.00309  -0.01846   0.00370   0.03749  -0.04969
  19 2   N  1S         -0.00710   0.00193  -0.01467   0.04646   0.04696
  20        2S         -0.01253   0.00366  -0.02789   0.08970   0.09213
  21        2PX         0.01715   0.03279   0.02036  -0.12746  -0.11492
  22        2PY        -0.03331  -0.15395   0.02995   0.09191  -0.12488
  23        2PZ        -0.12590   0.04765   0.13208   0.01802  -0.00241
  24        3S          0.04715  -0.03449   0.16216  -0.64808  -0.71503
  25        3PX         0.06456   0.11825   0.09101  -0.41404  -0.29528
  26        3PY        -0.12103  -0.54799   0.11596   0.31499  -0.42666
  27        3PZ        -0.45572   0.16458   0.46090   0.07222  -0.00687
  28        4S          0.36737  -0.19740  -0.75747   0.44304  -0.01411
  29        4PX        -0.34755  -0.10623   0.04346   0.39373   0.18191
  30        4PY         0.06224   0.63456  -0.16326  -0.63388   0.90536
  31        4PZ         0.50025  -0.17335  -0.61276  -0.17586   0.04566
  32        5D 0       -0.00013  -0.00021  -0.00240   0.00297   0.01209
  33        5D+1        0.03399  -0.00971  -0.02587  -0.00501  -0.00425
  34        5D-1        0.00762  -0.00170  -0.00082  -0.00344   0.00164
  35        5D+2       -0.00420  -0.01350   0.00322  -0.00525  -0.02626
  36        5D-2        0.01082   0.03739  -0.00520  -0.00926   0.00260
  37 3   N  1S         -0.00531   0.00476  -0.01386  -0.01087  -0.00905
  38        2S         -0.01021   0.00941  -0.02461  -0.02116  -0.01644
  39        2PX        -0.01547  -0.00741  -0.05136   0.05569   0.03009
  40        2PY        -0.02674  -0.08363   0.00006  -0.12762   0.07446
  41        2PZ        -0.13023   0.03613  -0.16491   0.00046  -0.03852
  42        3S          0.06338  -0.07553   0.07370   0.21778   0.11978
  43        3PX        -0.01335  -0.00279  -0.11562   0.14879   0.07317
  44        3PY        -0.11562  -0.28014  -0.01720  -0.45766   0.24524
  45        3PZ        -0.45032   0.11239  -0.57954  -0.04072  -0.13120
  46        4S         -0.06976   0.31697   1.32708  -0.78942   0.74173
  47        4PX        -0.14081   0.12023   0.53350  -0.36477  -0.10013
  48        4PY         0.09242   0.15476  -0.37935   0.91322  -0.37904
  49        4PZ         0.47759   0.00713   1.33416  -0.21853   0.41419
  50        5D 0       -0.01244  -0.00006  -0.01524   0.01618  -0.00144
  51        5D+1       -0.02599   0.00878  -0.03668   0.00351  -0.01682
  52        5D-1       -0.00270   0.00449   0.00069   0.00031  -0.00166
  53        5D+2        0.01159  -0.00053   0.02258  -0.00863  -0.00482
  54        5D-2       -0.00125  -0.01878   0.01175  -0.03214   0.02641
  55 4   H  1S          0.00812  -0.02512   0.00259  -0.00883   0.01427
  56        2S         -0.00271  -0.32127  -0.56078   0.34077  -0.10885
  57        3S         -0.16605   0.50937  -0.03543   0.30786  -0.35681
  58        4PX        -0.02114  -0.01583  -0.10007   0.03112  -0.03914
  59        4PY        -0.01357   0.01465  -0.01887   0.07559  -0.03389
  60        4PZ         0.00644  -0.02076   0.02763  -0.03195   0.01179
  61 5   H  1S          0.00311   0.01622  -0.00947   0.01303   0.01758
  62        2S         -0.04309   0.10634  -0.09298  -0.14290   0.02896
  63        3S         -0.04293  -0.35451   0.13890  -0.19291   0.08774
  64        4PX         0.00491   0.02535  -0.00177   0.00990  -0.06772
  65        4PY         0.00522  -0.00196  -0.00932   0.01257  -0.00921
  66        4PZ         0.02636   0.00636   0.08466  -0.01590   0.02145
                          26        27        28        29        30
                           V         V         V         V         V
     Eigenvalues --     0.68822   0.74218   0.77581   0.91411   1.02132
   1 1   N  1S         -0.00191  -0.02055  -0.04562  -0.00046   0.00211
   2        2S         -0.00367  -0.04071  -0.08921  -0.00011   0.00109
   3        2PX        -0.02793  -0.00161  -0.13095   0.27143  -0.17531
   4        2PY        -0.07546   0.12816  -0.03635   0.01835   0.01691
   5        2PZ         0.16896   0.08327  -0.04884   0.00530  -0.02681
   6        3S          0.01869   0.31016   0.69498  -0.09418   0.04590
   7        3PX        -0.14463  -0.04365  -0.51903   0.21260  -0.45769
   8        3PY        -0.26443   0.44476  -0.13234   0.03321   0.08856
   9        3PZ         0.57104   0.28076  -0.17230  -0.03687  -0.10244
  10        4S         -0.45051  -0.23972  -1.75885   1.54443   0.76785
  11        4PX         2.00475  -0.43579   2.86664   3.19541  10.00737
  12        4PY         0.94780  -1.57626   0.32860   0.38255   0.58906
  13        4PZ        -1.47081  -0.69231   0.80602   0.26450   0.73659
  14        5D 0        0.00537  -0.01037   0.01129   0.00346  -0.00860
  15        5D+1       -0.01755  -0.00259  -0.00213   0.05180   0.02929
  16        5D-1        0.01996  -0.02131  -0.01948   0.00252   0.04029
  17        5D+2       -0.01284   0.00338  -0.02400   0.02061   0.01811
  18        5D-2       -0.00974   0.01403  -0.02168  -0.10140  -0.04092
  19 2   N  1S          0.00482  -0.01337  -0.00658   0.03860  -0.04181
  20        2S          0.00919  -0.02730  -0.01512   0.07012  -0.08383
  21        2PX        -0.00977   0.04296  -0.02245   0.22576  -0.04520
  22        2PY         0.04584  -0.03777   0.00814   0.06604   0.01540
  23        2PZ        -0.12895  -0.04764   0.00905  -0.00322  -0.00910
  24        3S         -0.08822   0.22371   0.06132  -0.36961   0.67312
  25        3PX         0.01211   0.07601  -0.11627   0.64305   0.18520
  26        3PY         0.17002  -0.17029   0.00653   0.14916   0.05631
  27        3PZ        -0.45685  -0.16576   0.05099   0.01151  -0.00016
  28        4S         -1.35006   0.32406  -1.54578  -2.97297  -8.97460
  29        4PX         0.44438  -0.29145   0.45488   0.66801   3.18881
  30        4PY        -0.34481   0.71635   0.12864   0.27095   1.07134
  31        4PZ         1.18056   0.47459  -0.33642  -0.12694  -0.19562
  32        5D 0        0.00307  -0.01844  -0.01494  -0.02765   0.03136
  33        5D+1        0.00351   0.00112  -0.00665  -0.02267  -0.03209
  34        5D-1        0.00565  -0.00468  -0.00813  -0.00528  -0.00514
  35        5D+2       -0.00437   0.01567   0.02068   0.02761  -0.08534
  36        5D-2       -0.00201   0.01329   0.01795   0.06163   0.03111
  37 3   N  1S         -0.00465  -0.02573  -0.05086  -0.05928   0.06050
  38        2S         -0.00717  -0.05103  -0.10011  -0.11168   0.12129
  39        2PX        -0.01563  -0.03969  -0.17903   0.18492   0.01977
  40        2PY         0.03944  -0.14471   0.02267  -0.01212  -0.04509
  41        2PZ        -0.02554  -0.01672   0.06312   0.04044   0.01624
  42        3S         -0.04748   0.44866   0.77202   0.72530  -1.09112
  43        3PX        -0.07559  -0.03882  -0.37755   0.51406   0.22497
  44        3PY         0.12347  -0.50269   0.15114   0.01920  -0.21871
  45        3PZ        -0.05995  -0.14141   0.18328   0.06443   0.19254
  46        4S          1.88139  -1.46858   1.00791   1.19901   9.01688
  47        4PX         0.88753  -0.00058   2.06539   0.17286   3.22729
  48        4PY        -0.77236   1.76282   0.01320  -0.23029  -0.38988
  49        4PZ         0.89827  -0.03080  -0.68059   0.06889   0.65101
  50        5D 0       -0.00408   0.00083  -0.05095   0.02479  -0.02696
  51        5D+1       -0.01272   0.02010   0.03513  -0.03404  -0.05870
  52        5D-1        0.00153   0.00137   0.01403   0.01871   0.01751
  53        5D+2       -0.00484   0.03578   0.07127  -0.03299   0.04034
  54        5D-2        0.02068  -0.03451   0.00031   0.06891   0.09515
  55 4   H  1S          0.03539  -0.02944  -0.00022   0.04516   0.09078
  56        2S         -0.52964   0.62057   0.46576  -0.13324  -0.84418
  57        3S          0.11259   0.51479   0.75630   0.10526  -0.07155
  58        4PX        -0.15148   0.08582  -0.00940  -0.07516  -0.31536
  59        4PY        -0.03425   0.14496   0.09516   0.04567  -0.08425
  60        4PZ        -0.00188  -0.04977  -0.15818  -0.08336   0.05593
  61 5   H  1S         -0.00309   0.01544   0.01131   0.03104   0.01691
  62        2S          0.11414  -0.36802   0.26136   0.05718  -0.22662
  63        3S          0.03146   0.02584   0.07078  -0.03259   0.10761
  64        4PX         0.02001  -0.03717   0.00643  -0.09872   0.17513
  65        4PY        -0.00194   0.01754   0.11545   0.05179  -0.04280
  66        4PZ         0.06711  -0.03190  -0.03115   0.03619   0.10999
                          31        32        33        34        35
                           V         V         V         V         V
     Eigenvalues --     1.12053   1.21943   1.36140   1.40105   1.44266
   1 1   N  1S          0.07948  -0.00938  -0.00568  -0.00146  -0.00204
   2        2S          0.15316  -0.01827  -0.01199  -0.00354  -0.00360
   3        2PX        -0.10307  -0.00487  -0.06504  -0.03091  -0.03244
   4        2PY        -0.05435  -0.00250  -0.03142  -0.00946  -0.01058
   5        2PZ         0.00613  -0.00066  -0.00556   0.00804  -0.00516
   6        3S         -1.34788   0.18237   0.06349   0.01189   0.02205
   7        3PX         0.01759  -0.02162  -0.24661  -0.17645  -0.11160
   8        3PY        -0.05305  -0.02473  -0.07005  -0.05005  -0.00121
   9        3PZ         0.00355  -0.02839  -0.01059   0.02320   0.06020
  10        4S          7.20942  -1.19928   0.85863   0.57105   0.61530
  11        4PX         1.00047   0.74248   3.87449   4.51707   2.10413
  12        4PY         0.62779   0.15938   0.59748   0.76806   0.16930
  13        4PZ        -0.09750   0.25203   0.21988   0.00065  -0.19558
  14        5D 0       -0.11001   0.13474   0.00059   0.01428  -0.02972
  15        5D+1        0.02483   0.04527   0.00862  -0.01718  -0.41005
  16        5D-1       -0.01047   0.00328  -0.05767   0.09302  -0.06335
  17        5D+2        0.20788   0.01067   0.01422   0.00580   0.05155
  18        5D-2        0.04728   0.01916   0.01461   0.03548  -0.19347
  19 2   N  1S         -0.07162   0.00587  -0.01302  -0.00593  -0.00416
  20        2S         -0.13707   0.01076  -0.02725  -0.01326  -0.00945
  21        2PX        -0.13267   0.01067   0.00234   0.02470   0.00137
  22        2PY        -0.02794  -0.00268   0.01254   0.00494   0.04266
  23        2PZ        -0.00114  -0.01484  -0.00649   0.00077   0.06829
  24        3S          1.15823  -0.10333   0.25227   0.14716   0.09591
  25        3PX         0.04135  -0.01116   0.07041   0.13255   0.03385
  26        3PY         0.01246  -0.00636   0.03499   0.02774   0.07135
  27        3PZ        -0.00004  -0.02008  -0.00601  -0.00135   0.11299
  28        4S         -5.02486  -0.01263  -3.74310  -4.06833  -1.99077
  29        4PX         2.40649  -0.06867   1.41293   1.47909   0.72901
  30        4PY         0.34070  -0.02277   0.26849   0.29144   0.20496
  31        4PZ         0.05019  -0.07758  -0.02743   0.04075   0.08462
  32        5D 0        0.08801   0.01656   0.01099   0.01409  -0.00496
  33        5D+1       -0.00307  -0.03716  -0.01349  -0.00028   0.25779
  34        5D-1       -0.00156  -0.01094  -0.02452   0.03577   0.06064
  35        5D+2       -0.12980   0.02933  -0.01871  -0.00465  -0.07644
  36        5D-2       -0.06198   0.00110  -0.00071  -0.01721   0.13215
  37 3   N  1S         -0.02799   0.01283   0.00216   0.00337   0.00895
  38        2S         -0.05445   0.02733   0.00253   0.00827   0.01998
  39        2PX         0.00441  -0.02185  -0.04227   0.00447  -0.01599
  40        2PY         0.00751   0.01749  -0.00285  -0.00135  -0.01918
  41        2PZ         0.01191  -0.00682   0.00126  -0.03685  -0.08027
  42        3S          0.58543  -0.29827  -0.02346  -0.17404  -0.22336
  43        3PX        -0.10970   0.01564  -0.06722   0.04319   0.10515
  44        3PY         0.05759  -0.05246  -0.03507   0.05050  -0.11572
  45        3PZ        -0.06321   0.03710   0.07399  -0.06573  -0.10646
  46        4S         -2.51732   1.55404   2.59574   3.66645   1.81245
  47        4PX        -1.07869   0.56763   1.21543   1.42359   0.18150
  48        4PY        -0.00156  -0.29752  -0.12737  -0.71051   0.07462
  49        4PZ        -0.19797  -0.13573   0.04302   0.68080   0.38017
  50        5D 0        0.03837   0.24791   0.01198  -0.01925   0.13431
  51        5D+1       -0.02253  -0.08875  -0.01160   0.00299   0.36095
  52        5D-1        0.00186  -0.03244  -0.09820   0.04061  -0.06453
  53        5D+2       -0.01462   0.16810  -0.02546  -0.02830   0.01877
  54        5D-2        0.03940   0.00395  -0.05805  -0.09020   0.17808
  55 4   H  1S         -0.01490   0.03925   0.10520  -0.05229  -0.06683
  56        2S          0.39476  -0.28890  -0.16733  -0.46930  -0.18460
  57        3S         -0.02708   0.02590   0.12141   0.00189  -0.03449
  58        4PX        -0.05693  -0.07959   0.34927   0.02330   0.27308
  59        4PY         0.12937   0.49202  -0.21086  -0.00169  -0.16069
  60        4PZ        -0.09639   0.59607   0.12936   0.16628   0.10285
  61 5   H  1S          0.01403   0.06149  -0.00174  -0.00532   0.02964
  62        2S          0.19073   0.08672  -0.03551   0.01211  -0.09539
  63        3S         -0.15226  -0.12821   0.08640   0.12090  -0.11518
  64        4PX        -0.16135  -0.24239  -0.61584  -0.13863  -0.09171
  65        4PY         0.13784   0.22614  -0.55851  -0.12024   0.36998
  66        4PZ        -0.01523   0.09838   0.23557  -0.94215   0.01580
                          36        37        38        39        40
                           V         V         V         V         V
     Eigenvalues --     1.50313   1.64809   1.66001   1.70584   1.83333
   1 1   N  1S         -0.00994  -0.00118   0.00002   0.00027   0.00310
   2        2S         -0.02026  -0.00175  -0.00021  -0.00057   0.00739
   3        2PX         0.01885  -0.03974   0.00223   0.06143  -0.00563
   4        2PY        -0.01670  -0.02808  -0.01551   0.01898   0.03922
   5        2PZ        -0.00846   0.03118  -0.01449  -0.01218  -0.03913
   6        3S          0.29524   0.01213  -0.00306   0.05299  -0.05751
   7        3PX         0.20837  -0.03308  -0.03370   0.02206   0.01857
   8        3PY         0.05834  -0.04445  -0.03012   0.01332   0.02770
   9        3PZ        -0.01623   0.04647  -0.02242  -0.01543  -0.01058
  10        4S         -3.78539   0.29120   0.26895  -1.10313   0.27025
  11        4PX        -3.96102   0.74917   0.92771   1.46762   0.25064
  12        4PY        -0.84768   0.33085   0.12038  -0.11933  -0.09319
  13        4PZ        -0.04146  -0.25126   0.08114   0.42152  -0.21661
  14        5D 0       -0.02104  -0.09802  -0.60349  -0.05690   0.03725
  15        5D+1        0.03381   0.20248   0.02478  -0.24243   0.25036
  16        5D-1        0.05072  -0.58608   0.15461  -0.36323  -0.03325
  17        5D+2       -0.06306  -0.10080  -0.36352  -0.05684   0.01988
  18        5D-2       -0.31441  -0.09155   0.00719   0.24512  -0.03682
  19 2   N  1S          0.00925  -0.00371  -0.00048   0.00690   0.00107
  20        2S          0.01871  -0.00871  -0.00121   0.01457   0.00169
  21        2PX        -0.05381  -0.00421   0.01350   0.02875   0.00569
  22        2PY         0.04134   0.01100  -0.01915  -0.03369   0.02025
  23        2PZ        -0.00220  -0.01695  -0.00764   0.05430  -0.05084
  24        3S         -0.25759   0.07303   0.02330  -0.11673  -0.00763
  25        3PX        -0.25771  -0.02491   0.04271   0.09387   0.01111
  26        3PY         0.03384   0.01212  -0.02871  -0.04462   0.02131
  27        3PZ        -0.00762  -0.02747  -0.01196   0.08574  -0.07239
  28        4S          5.01198  -0.78224  -0.88366  -0.67148  -0.26582
  29        4PX        -1.94777   0.32325   0.32142   0.13476   0.09816
  30        4PY        -0.38722  -0.00608   0.09269   0.17594   0.03215
  31        4PZ        -0.03482   0.10620  -0.01434  -0.17901   0.15330
  32        5D 0       -0.06096  -0.08308  -0.45771  -0.04113   0.03181
  33        5D+1       -0.02644   0.03822  -0.06248   0.29758  -0.23498
  34        5D-1        0.01403  -0.42994   0.09316  -0.27203  -0.26262
  35        5D+2       -0.07110  -0.08025  -0.20324   0.07356  -0.02888
  36        5D-2        0.17193   0.01012  -0.20498  -0.16901   0.13848
  37 3   N  1S          0.03014   0.02064  -0.00112  -0.00795   0.00068
  38        2S          0.06163   0.04361  -0.00202  -0.01339   0.00468
  39        2PX        -0.03838   0.00103   0.00094   0.03458  -0.06391
  40        2PY        -0.04659   0.02040   0.00361  -0.01781  -0.07664
  41        2PZ         0.00440  -0.01857  -0.00030   0.01637   0.10404
  42        3S         -0.54803  -0.34559  -0.01359  -0.02468  -0.14737
  43        3PX        -0.12531   0.12272   0.03105   0.01251  -0.01502
  44        3PY        -0.13416   0.14754  -0.05736  -0.04922  -0.18152
  45        3PZ        -0.02770  -0.14018   0.02151   0.07794   0.05823
  46        4S         -0.94854   0.91040   0.71322   1.55201   0.41689
  47        4PX         0.03777  -0.15299   0.17904   1.30806  -0.15319
  48        4PY         0.50249  -0.46671   0.00124   0.12278   0.48952
  49        4PZ         0.03488   0.47233  -0.02359  -0.18731   0.12766
  50        5D 0       -0.02553  -0.07613  -0.07442   0.03763  -0.03637
  51        5D+1       -0.07758  -0.10667   0.05497   0.10833   0.06335
  52        5D-1        0.08514  -0.17195   0.01650   0.11553   0.26049
  53        5D+2        0.02406  -0.00415  -0.06330   0.00576   0.07091
  54        5D-2        0.29782   0.11550  -0.01963  -0.14107  -0.13189
  55 4   H  1S          0.11032   0.16712  -0.02761  -0.34203  -0.69835
  56        2S         -0.20834  -0.70298  -0.00808   0.70007   0.92338
  57        3S          0.13540   0.12027  -0.00198  -0.21034  -0.41729
  58        4PX        -0.39452   0.34654   0.00771  -0.60961   0.11348
  59        4PY         0.07336   0.17658   0.05727   0.06599  -0.42130
  60        4PZ        -0.33013  -0.08786   0.19262  -0.05831   0.10970
  61 5   H  1S         -0.00606   0.00800  -0.01648  -0.00926  -0.34819
  62        2S         -0.03676  -0.01272   0.03165   0.03085   0.27462
  63        3S         -0.11869  -0.02181  -0.08412   0.09008  -0.28286
  64        4PX        -0.52514   0.10922  -0.07966  -0.18612  -0.22916
  65        4PY         0.02359   0.11853   0.11695  -0.19022   0.41352
  66        4PZ        -0.12335  -0.15332   0.05709   0.01975   0.06905
                          41        42        43        44        45
                           V         V         V         V         V
     Eigenvalues --     1.85785   2.07413   2.10099   2.16944   2.23790
   1 1   N  1S         -0.01001  -0.00085   0.00384   0.00138   0.00755
   2        2S         -0.02040  -0.00262   0.00879   0.00260   0.02098
   3        2PX        -0.01099  -0.00018  -0.00125  -0.01725   0.03479
   4        2PY        -0.01814  -0.04932   0.01525   0.07191   0.14016
   5        2PZ         0.00949  -0.02701   0.00831   0.10620  -0.07535
   6        3S          0.23559   0.01679  -0.05358  -0.07464  -0.18401
   7        3PX        -0.10313  -0.01617   0.03586   0.00530   0.04864
   8        3PY        -0.01208  -0.01420  -0.01824   0.01912  -0.00085
   9        3PZ         0.01260  -0.02202   0.01919   0.01190   0.00148
  10        4S         -0.98342   0.07229   0.01497   0.52945  -0.46058
  11        4PX         3.64091  -0.50956   0.72668  -0.95590   1.32325
  12        4PY        -0.07046  -0.09609   0.21507   0.35068   0.48692
  13        4PZ         0.02534  -0.03476   0.13143   0.35200  -0.00140
  14        5D 0        0.07407  -0.39265  -0.17295  -0.04387  -0.16900
  15        5D+1       -0.01438   0.00106   0.05303  -0.06798  -0.09111
  16        5D-1        0.05031   0.16693  -0.50893   0.04887   0.20642
  17        5D+2       -0.12024  -0.23841  -0.11236   0.06645   0.12801
  18        5D-2        0.34266  -0.07891  -0.04713  -0.09381   0.09588
  19 2   N  1S          0.00185  -0.00195   0.00058   0.00045   0.00928
  20        2S          0.00267  -0.00414   0.00083   0.00176   0.02313
  21        2PX         0.04228  -0.00714   0.00962  -0.01093  -0.00111
  22        2PY        -0.04782  -0.00922   0.01667   0.01276   0.01989
  23        2PZ         0.00142  -0.00313   0.00014   0.02839  -0.00231
  24        3S         -0.01450   0.02890  -0.00169  -0.00997  -0.19824
  25        3PX         0.08326  -0.03331   0.01827   0.00430   0.18983
  26        3PY        -0.07749  -0.01922   0.01363   0.03926   0.06221
  27        3PZ         0.00125  -0.00903   0.00936   0.03758  -0.00203
  28        4S         -2.47369   0.38047  -0.61731   0.49739  -0.82276
  29        4PX         0.77795  -0.12903   0.23443  -0.11428   0.21033
  30        4PY         0.47203   0.00725  -0.01800  -0.26134  -0.16650
  31        4PZ         0.01388   0.02021  -0.03796  -0.23293   0.05714
  32        5D 0        0.14695   0.63458   0.23840   0.00073  -0.02812
  33        5D+1       -0.01740  -0.02790  -0.09307   0.42109  -0.16140
  34        5D-1        0.13631  -0.27716   0.69747   0.02522  -0.21383
  35        5D+2        0.18915   0.37994   0.09803  -0.14172  -0.01999
  36        5D-2       -0.23379   0.01934   0.12872   0.30839   0.46236
  37 3   N  1S          0.03570  -0.00785   0.00548  -0.00712   0.02397
  38        2S          0.07425  -0.01884   0.01739  -0.02013   0.05654
  39        2PX         0.04545  -0.00374  -0.01720   0.01947   0.02979
  40        2PY         0.07752  -0.01547  -0.06034  -0.02716   0.05752
  41        2PZ        -0.01897  -0.03346   0.05456  -0.03004  -0.01731
  42        3S         -0.74007   0.18209  -0.20711   0.26399  -0.53649
  43        3PX         0.31425  -0.06102   0.10293  -0.14216   0.02795
  44        3PY        -0.03904  -0.09534   0.17125  -0.06325   0.22478
  45        3PZ        -0.10586   0.06613  -0.11264   0.13007  -0.18396
[...]
                     4                      5                      6
                     A                      A                      A
 Frequencies --   567.8758               640.5075              1171.3121
 Red. masses --     4.9758                 3.0007                 1.7747
 Frc consts  --     0.9454                 0.7253                 1.4346
 IR Inten    --     8.3321                19.9458               144.7910
  Atom  AN      X      Y      Z        X      Y      Z        X      Y      Z
     1   7     0.02  -0.17   0.42    -0.06   0.29   0.16     0.05  -0.05   0.07
     2   7    -0.02   0.09  -0.23     0.02  -0.14  -0.09     0.07   0.01  -0.01
     3   7     0.06   0.06  -0.20    -0.01  -0.10  -0.03    -0.19   0.06  -0.07
     4   1    -0.49   0.34  -0.29     0.07  -0.52  -0.45     0.84  -0.39   0.27
     5   1    -0.33  -0.02   0.38     0.57  -0.20  -0.10    -0.01   0.11  -0.03
                     7                      8                      9
                     A                      A                      A
 Frequencies --  1289.0662              2274.7867              3523.3266
 Red. masses --     2.7511                12.1250                 1.0763
 Frc consts  --     2.6935                36.9669                 7.8721
 IR Inten    --     5.5005               431.4814                59.4864
  Atom  AN      X      Y      Z        X      Y      Z        X      Y      Z
     1   7     0.08   0.03  -0.02     0.72   0.12   0.01    -0.00   0.00  -0.00
     2   7     0.24   0.03   0.01    -0.53  -0.11  -0.00    -0.00  -0.00  -0.00
     3   7    -0.25  -0.07   0.02    -0.17  -0.02   0.01     0.04   0.05  -0.04
     4   1    -0.88   0.14  -0.20    -0.36   0.03  -0.09    -0.47  -0.66   0.58
     5   1    -0.06   0.15   0.04     0.03  -0.05  -0.02     0.00  -0.01  -0.00

 -------------------
 - Thermochemistry -
 -------------------
 Temperature   298.150 Kelvin.  Pressure   1.00000 Atm.
 Atom     1 has atomic number  7 and mass  14.00307
 Atom     2 has atomic number  7 and mass  14.00307
 Atom     3 has atomic number  7 and mass  14.00307
 Atom     4 has atomic number  1 and mass   1.00783
 Atom     5 has atomic number  1 and mass   1.00783
 Molecular mass:    44.02487 amu.
 Principal axes and moments of inertia in atomic units:
                           1         2         3
     Eigenvalues --    12.42722 162.78959 171.92901
           X            0.99899  -0.03730  -0.02490
           Y            0.03692   0.99920  -0.01565
           Z            0.02546   0.01471   0.99957
 This molecule is an asymmetric top.
 Rotational symmetry number  1.
 Rotational temperatures (Kelvin)      6.96968     0.53206     0.50378
 Rotational constants (GHZ):         145.22481    11.08634    10.49701
    1 imaginary frequencies ignored.
 Zero-point vibrational energy      60644.4 (Joules/Mol)
                                   14.49435 (Kcal/Mol)
 Warning -- explicit consideration of   3 degrees of freedom as
           vibrations may cause significant error
 Vibrational temperatures:    389.37   577.59   817.05   921.55  1685.25
          (Kelvin)           1854.68  3272.91  5069.27
 
 Zero-point correction=                           0.023098 (Hartree/Particle)
 Thermal correction to Energy=                    0.027045
 Thermal correction to Enthalpy=                  0.027989
 Thermal correction to Gibbs Free Energy=        -0.001777
 Sum of electronic and zero-point Energies=           -165.200027
 Sum of electronic and thermal Energies=              -165.196080
 Sum of electronic and thermal Enthalpies=            -165.195136
 Sum of electronic and thermal Free Energies=         -165.224903
 
                     E (Thermal)             CV                S
                      KCal/Mol        Cal/Mol-Kelvin    Cal/Mol-Kelvin
 Total                   16.971             11.586             62.649
 Electronic               0.000              0.000              1.377
 Translational            0.889              2.981             37.273
 Rotational               0.889              2.981             20.481
 Vibrational             15.194              5.624              3.518
 Vibration     1          0.674              1.727              1.592
 Vibration     2          0.767              1.467              0.957
 Vibration     3          0.924              1.101              0.508
                       Q            Log10(Q)             Ln(Q)
 Total Bot       0.656927D+01          0.817517          1.882403
 Total V=0       0.276653D+12         11.441936         26.346032
 Vib (Bot)       0.428512D-10        -10.368037        -23.873287
 Vib (Bot)    1  0.713906D+00         -0.146359         -0.337004
 Vib (Bot)    2  0.443516D+00         -0.353091         -0.813022
 Vib (Bot)    3  0.271588D+00         -0.566090         -1.303469
 Vib (V=0)       0.180461D+01          0.256382          0.590342
 Vib (V=0)    1  0.137159D+01          0.137223          0.315968
 Vib (V=0)    2  0.116836D+01          0.067577          0.155602
 Vib (V=0)    3  0.106900D+01          0.028977          0.066723
 Electronic      0.200000D+01          0.301030          0.693147
 Translational   0.114816D+08          7.060002         16.256256
 Rotational      0.667608D+04          3.824521          8.806286
 
                                                         RC, from TS 2reverse
                                                             IR Spectrum
 
     3                                             2                                  1   1                                          
     5                                             2                                  2   1                  6  5     4    2         
     2                                             7                                  8   7                  4  6     0    7         
     3                                             5                                  9   1                  1  8     1    1         
 
     X                                             X                                  X   X                  X  X     X    X         
     X                                             X                                      X                           X              
     X                                             X                                      X                           X              
                                                   X                                      X                                          
                                                   X                                      X                                          
                                                   X                                      X                                          
                                                   X                                      X                                          
                                                   X                                                                                 
                                                   X                                                                                 
                                                   X                                                                                 
                                                   X                                                                                 
                                                   X                                                                                 
                                                   X                                                                                 
                                                   X                                                                                 
                                                   X                                                                                 
                                                   X                                                                                 
                                                   X                                                                                 
                                                   X                                                                                 
                                                   X                                                                                 
                                                   X                                                                                 
 
 ***** Axes restored to original set *****
 -------------------------------------------------------------------
 Center     Atomic                   Forces (Hartrees/Bohr)
 Number     Number              X              Y              Z
 -------------------------------------------------------------------
      1        7           0.001236306    0.001385690    0.000315848
      2        7          -0.000709368   -0.000758388   -0.000473613
      3        7          -0.001492507   -0.002301510    0.000652878
      4        1          -0.000210146   -0.000035843    0.000116467
      5        1           0.001175716    0.001710051   -0.000611580
 -------------------------------------------------------------------
 Cartesian Forces:  Max     0.002301510 RMS     0.001081401
 Z-matrix is all fixed cartesians, so copy forces.
 Force constants in Cartesian coordinates: 
                1             2             3             4             5 
      1  0.166401D+00
      2 -0.117156D-01  0.118825D+00
      3 -0.213279D+00  0.209267D-01  0.171238D+01
      4 -0.659617D-01  0.919241D-02  0.102996D+00  0.479839D-01
      5  0.130034D-01 -0.612200D-01 -0.424982D-01 -0.663189D-02  0.336771D-01
      6  0.131376D+00 -0.220126D-01 -0.112588D+01 -0.146332D+00  0.308864D-01
      7 -0.968648D-01  0.162085D-01  0.769984D-01  0.173337D-01 -0.135501D-01
      8  0.969988D-02 -0.299090D-01  0.294168D-01 -0.718221D-02  0.122856D-01
      9  0.101057D+00 -0.103247D-01 -0.527880D+00  0.435729D-01  0.148593D-01
     10  0.536361D-02  0.477145D-03  0.355858D-01 -0.171382D-02 -0.518004D-04
     11  0.377909D-02 -0.126418D-01 -0.279432D-04 -0.795549D-03  0.665982D-02
     12 -0.271594D-01  0.335080D-03 -0.616698D-01  0.184880D-02  0.481973D-03
     13 -0.893797D-02 -0.141625D-01 -0.230189D-02  0.235788D-02  0.723040D-02
     14 -0.147668D-01 -0.150542D-01 -0.781734D-02  0.541724D-02  0.859744D-02
     15  0.800540D-02  0.110755D-01  0.304614D-02 -0.208646D-02 -0.372955D-02
                6             7             8             9            10 
      6  0.118868D+01
      7 -0.335990D-02  0.337412D+00
      8 -0.301161D-01 -0.782308D-02  0.411223D-02
      9 -0.672332D-01  0.105788D+00  0.660054D-02  0.774288D+00
     10  0.400202D-02 -0.267269D+00 -0.994606D-02 -0.234466D+00  0.262568D+00
     11 -0.845579D-03 -0.717182D-02 -0.177090D-02  0.672817D-02  0.549001D-02
     12  0.104956D-01 -0.171860D+00  0.239997D-02 -0.178067D+00  0.196293D+00
     13  0.143138D-01  0.938792D-02  0.152515D-01 -0.159521D-01  0.105108D-02
     14  0.220879D-01  0.123365D-01  0.152820D-01 -0.178634D-01  0.403070D-02
     15 -0.606724D-02 -0.756621D-02 -0.830121D-02 -0.110792D-02 -0.141527D-02
               11            12            13            14            15 
     11  0.630115D-02
     12 -0.274542D-02  0.227766D+00
     13 -0.130173D-02  0.877731D-03 -0.385892D-02
     14  0.145173D-02 -0.471596D-03 -0.701768D-02 -0.102770D-01
     15 -0.310922D-02  0.147481D-02  0.306253D-02  0.406444D-02  0.265421D-02
 Leave Link  716 at Tue Apr 29 14:50:28 2014, MaxMem=   65536000 cpu:       0.2
 (Enter /apps/gaussian/g09/l103.exe)

 GradGradGradGradGradGradGradGradGradGradGradGradGradGradGradGradGradGrad
 Berny optimization.
 Search for a local minimum.
 Step number   1 out of a maximum of    2
 All quantities printed in internal units (Hartrees-Bohrs-Radians)
 Second derivative matrix not updated -- analytic derivatives used.
 The second derivative matrix:
                          X1        Y1        Z1        X2        Y2
           X1           0.16640
           Y1          -0.01172   0.11882
           Z1          -0.21328   0.02093   1.71238
           X2          -0.06596   0.00919   0.10300   0.04798
           Y2           0.01300  -0.06122  -0.04250  -0.00663   0.03368
           Z2           0.13138  -0.02201  -1.12588  -0.14633   0.03089
           X3          -0.09686   0.01621   0.07700   0.01733  -0.01355
           Y3           0.00970  -0.02991   0.02942  -0.00718   0.01229
           Z3           0.10106  -0.01032  -0.52788   0.04357   0.01486
           X4           0.00536   0.00048   0.03559  -0.00171  -0.00005
           Y4           0.00378  -0.01264  -0.00003  -0.00080   0.00666
           Z4          -0.02716   0.00034  -0.06167   0.00185   0.00048
           X5          -0.00894  -0.01416  -0.00230   0.00236   0.00723
           Y5          -0.01477  -0.01505  -0.00782   0.00542   0.00860
           Z5           0.00801   0.01108   0.00305  -0.00209  -0.00373
                          Z2        X3        Y3        Z3        X4
           Z2           1.18868
           X3          -0.00336   0.33741
           Y3          -0.03012  -0.00782   0.00411
           Z3          -0.06723   0.10579   0.00660   0.77429
           X4           0.00400  -0.26727  -0.00995  -0.23447   0.26257
           Y4          -0.00085  -0.00717  -0.00177   0.00673   0.00549
           Z4           0.01050  -0.17186   0.00240  -0.17807   0.19629
           X5           0.01431   0.00939   0.01525  -0.01595   0.00105
           Y5           0.02209   0.01234   0.01528  -0.01786   0.00403
           Z5          -0.00607  -0.00757  -0.00830  -0.00111  -0.00142
                          Y4        Z4        X5        Y5        Z5
           Y4           0.00630
           Z4          -0.00275   0.22777
           X5          -0.00130   0.00088  -0.00386
           Y5           0.00145  -0.00047  -0.00702  -0.01028
           Z5          -0.00311   0.00147   0.00306   0.00406   0.00265
     Eigenvalues ---   -0.03774   0.00683   0.01057   0.05798   0.15588
     Eigenvalues ---    0.21567   0.57567   1.04778   2.72321
 Eigenvalue     1 is  -3.77D-02 should be greater than     0.000000 Eigenvector:
                          Y5        X5        Y3        Z5        X4
   1                   -0.73178  -0.45704   0.35237   0.23367   0.16640
                          X3        Y1        Z4        X1        X2
   1                    0.11543  -0.09204  -0.08909  -0.08204   0.07646
 Angle between quadratic step and forces=  33.13 degrees.
 Linear search not attempted -- first point.
 TrRot= -0.002741 -0.006876  0.001457 -1.393050 -0.003104  1.391853
 Variable       Old X    -DE/DX   Delta X   Delta X   Delta X     New X
                                 (Linear)    (Quad)   (Total)
    X1       -0.20370   0.00124   0.00000   0.01454   0.01157  -0.19212
    Y1       -0.11948   0.00139   0.00000   0.01598   0.00988  -0.10959
    Z1        0.17963   0.00032   0.00000   0.00237   0.00404   0.18367
    X2       -0.44464  -0.00071   0.00000  -0.00862  -0.01268  -0.45732
    Y2       -0.04348  -0.00076   0.00000  -0.00256  -0.00186  -0.04534
    Z2        2.30442  -0.00047   0.00000  -0.00329  -0.00195   2.30247
    X3        0.54324  -0.00149   0.00000  -0.01055  -0.01225   0.53099
    Y3       -0.02161  -0.00230   0.00000  -0.04602  -0.05975  -0.08136
    Z3       -2.03652   0.00065   0.00000   0.00130   0.00327  -2.03325
    X4       -0.92780  -0.00021   0.00000  -0.01462  -0.01558  -0.94338
    Y4       -0.03520  -0.00004   0.00000   0.02017   0.00442  -0.03077
    Z4       -3.27762   0.00012   0.00000   0.00661   0.00761  -3.27001
    X5        2.38799   0.00118   0.00000   0.02687   0.02894   2.41693
    Y5        2.59952   0.00171   0.00000   0.06609   0.04731   2.64683
    Z5       -2.94062  -0.00061   0.00000  -0.00763  -0.01297  -2.95358
         Item               Value     Threshold  Converged?
 Maximum Force            0.002302     0.000450     NO 
 RMS     Force            0.001081     0.000300     NO 
 Maximum Displacement     0.059749     0.001800     NO 
 RMS     Displacement     0.022673     0.001200     NO 
 Predicted change in Energy=-4.521174D-04
 GradGradGradGradGradGradGradGradGradGradGradGradGradGradGradGradGradGrad

 Leave Link  103 at Tue Apr 29 14:50:28 2014, MaxMem=   65536000 cpu:       0.1
 (Enter /apps/gaussian/g09/l9999.exe)

 Test job not archived.
 1\1\GINC-ROMEO158\Freq\UM06\6-311G(d,p)\H2N3(2)\ROOT\29-Apr-2014\0\\#P
  M06 6-311G** FREQ # GFINPUT IOP(6/7=3) POP=FULL\\RC, from TS 2reverse
 \\0,2\N,-0.107791,-0.063224,0.095058\N,-0.235294,-0.023006,1.219449\N,
 0.287472,-0.011434,-1.07768\H,-0.490971,-0.018626,-1.734443\H,1.26367,
 1.375608,-1.556108\\Version=AM64L-G09RevA.02\State=2-A\HF=-165.2231253
 \S2=0.760157\S2-1=0.\S2A=0.75001\RMSD=3.852e-09\RMSF=1.081e-03\ZeroPoi
 nt=0.0230982\Thermal=0.0270451\Dipole=-0.6663699,-0.1878056,-0.4600724
 \DipoleDeriv=0.0054114,-0.1869841,-0.2601669,-0.2148944,-0.0039558,0.1
 700213,-0.6549427,-0.2909943,2.0035375,-0.1104304,0.0339488,0.0336831,
 0.0967411,-0.041983,-0.1047225,0.5369569,0.378769,-1.1223135,0.0022549
 ,0.1267033,0.273545,0.174074,-0.2211314,-0.1985865,0.0841638,-0.087689
 3,-1.1251307,0.1636581,-0.0091189,-0.0798832,-0.0200074,0.32933,0.0334
 866,0.0531339,0.0393613,0.3285188,-0.0608941,0.0354509,0.032822,-0.035
 9133,-0.0622598,0.099801,-0.0193118,-0.0394467,-0.0846121\Polar=19.730
 266,7.7980182,18.9210029,-10.333619,-7.8931167,44.6413698\PG=C01 [X(H2
 N3)]\NImag=1\\0.16640086,-0.01171555,0.11882491,-0.21327853,0.02092667
 ,1.71237903,-0.06596171,0.00919241,0.10299624,0.04798391,0.01300337,-0
 .06121996,-0.04249819,-0.00663189,0.03367707,0.13137564,-0.02201262,-1
 .12587565,-0.14633151,0.03088644,1.18868054,-0.09686479,0.01620846,0.0
 7699842,0.01733374,-0.01355009,-0.00335990,0.33741175,0.00969988,-0.02
 990895,0.02941680,-0.00718221,0.01228563,-0.03011610,-0.00782308,0.004
 11223,0.10105690,-0.01032467,-0.52787969,0.04357293,0.01485933,-0.0672
 3321,0.10578804,0.00660054,0.77428765,0.00536361,0.00047714,0.03558576
 ,-0.00171382,-0.00005180,0.00400202,-0.26726862,-0.00994606,-0.2344657
 5,0.26256774,0.00377909,-0.01264179,-0.00002794,-0.00079555,0.00665982
 ,-0.00084558,-0.00717182,-0.00177090,0.00672817,0.00549001,0.00630115,
 -0.02715941,0.00033508,-0.06166983,0.00184880,0.00048197,0.01049556,-0
 .17186036,0.00239997,-0.17806683,0.19629324,-0.00274542,0.22776628,-0.
 00893797,-0.01416246,-0.00230189,0.00235788,0.00723040,0.01431375,0.00
 938792,0.01525147,-0.01595213,0.00105108,-0.00130173,0.00087773,-0.003
 85892,-0.01476679,-0.01505420,-0.00781734,0.00541724,0.00859744,0.0220
 8786,0.01233653,0.01528199,-0.01786337,0.00403070,0.00145173,-0.000471
 60,-0.00701768,-0.01027696,0.00800540,0.01107554,0.00304614,-0.0020864
 6,-0.00372955,-0.00606724,-0.00756621,-0.00830121,-0.00110792,-0.00141
 527,-0.00310922,0.00147481,0.00306253,0.00406444,0.00265421\\-0.001236
 31,-0.00138569,-0.00031585,0.00070937,0.00075839,0.00047361,0.00149251
 ,0.00230151,-0.00065288,0.00021015,0.00003584,-0.00011647,-0.00117572,
 -0.00171005,0.00061158\\\@


 MORNING PEOPLE ARE USUALLY ADMIRED AS EARLY BIRDS.
 RECALL BEN FRANKLIN'S APHORISM THAT THE EARLY BIRD GETS THE WORM.
 I IDENTIFY WITH THE WORM. --  CRAIG JAGGER, MINNEAPOLIS, KS.
 Job cpu time:  0 days  0 hours  1 minutes 51.6 seconds.
 File lengths (MBytes):  RWF=      9 Int=      0 D2E=      0 Chk=      1 Scr=      1
 Normal termination of Gaussian 09 at Tue Apr 29 14:50:28 2014.
************
total 320
drwxrwxr-x 2 henon henon   4096 29 avril 14:50 .
drwxrwxr-x 3 henon henon   4096 29 avril 14:50 ..
-rw-r--r-- 1 henon henon    376 29 avril 14:50 2Rfreq.inp
-rw-rw-r-- 1 henon henon 311940 29 avril 14:50 2Rfreq.out
Run on 12 cores
romeo158
************
