 Entering Gaussian System, Link 0=g09
 Initial command:
 /apps/gaussian/g09/l1.exe /scratch_l/henon/4Rfreq_27878/Gau-27894.inp -scrdir=/scratch_l/henon/4Rfreq_27878/
 Entering Link 1 = /apps/gaussian/g09/l1.exe PID=     27895.
  
 Copyright (c) 1988,1990,1992,1993,1995,1998,2003,2009, Gaussian, Inc.
                  All Rights Reserved.
  
 This is part of the Gaussian(R) 09 program.  It is based on
 the Gaussian(R) 03 system (copyright 2003, Gaussian, Inc.),
 the Gaussian(R) 98 system (copyright 1998, Gaussian, Inc.),
 the Gaussian(R) 94 system (copyright 1995, Gaussian, Inc.),
 the Gaussian 92(TM) system (copyright 1992, Gaussian, Inc.),
 the Gaussian 90(TM) system (copyright 1990, Gaussian, Inc.),
 the Gaussian 88(TM) system (copyright 1988, Gaussian, Inc.),
 the Gaussian 86(TM) system (copyright 1986, Carnegie Mellon
 University), and the Gaussian 82(TM) system (copyright 1983,
 Carnegie Mellon University). Gaussian is a federally registered
 trademark of Gaussian, Inc.
  
 This software contains proprietary and confidential information,
 including trade secrets, belonging to Gaussian, Inc.
  
 This software is provided under written license and may be
 used, copied, transmitted, or stored only in accord with that
 written license.
  
 The following legend is applicable only to US Government
 contracts under FAR:
  
                    RESTRICTED RIGHTS LEGEND
  
 Use, reproduction and disclosure by the US Government is
 subject to restrictions as set forth in subparagraphs (a)
 and (c) of the Commercial Computer Software - Restricted
 Rights clause in FAR 52.227-19.
  
 Gaussian, Inc.
 340 Quinnipiac St., Bldg. 40, Wallingford CT 06492
  
  
 ---------------------------------------------------------------
 Warning -- This program may not be used in any manner that
 competes with the business of Gaussian, Inc. or will provide
 assistance to any competitor of Gaussian, Inc.  The licensee
 of this program is prohibited from giving any competitor of
 Gaussian, Inc. access to this program.  By using this program,
 the user acknowledges that Gaussian, Inc. is engaged in the
 business of creating and licensing software in the field of
 computational chemistry and represents and warrants to the
 licensee that it is not a competitor of Gaussian, Inc. and that
 it will not use this program in any manner prohibited above.
 ---------------------------------------------------------------
  

 Cite this work as:
 Gaussian 09, Revision A.02,
 M. J. Frisch, G. W. Trucks, H. B. Schlegel, G. E. Scuseria, 
 M. A. Robb, J. R. Cheeseman, G. Scalmani, V. Barone, B. Mennucci, 
 G. A. Petersson, H. Nakatsuji, M. Caricato, X. Li, H. P. Hratchian, 
 A. F. Izmaylov, J. Bloino, G. Zheng, J. L. Sonnenberg, M. Hada, 
 M. Ehara, K. Toyota, R. Fukuda, J. Hasegawa, M. Ishida, T. Nakajima, 
 Y. Honda, O. Kitao, H. Nakai, T. Vreven, J. A. Montgomery, Jr., 
 J. E. Peralta, F. Ogliaro, M. Bearpark, J. J. Heyd, E. Brothers, 
 K. N. Kudin, V. N. Staroverov, R. Kobayashi, J. Normand, 
 K. Raghavachari, A. Rendell, J. C. Burant, S. S. Iyengar, J. Tomasi, 
 M. Cossi, N. Rega, J. M. Millam, M. Klene, J. E. Knox, J. B. Cross, 
 V. Bakken, C. Adamo, J. Jaramillo, R. Gomperts, R. E. Stratmann, 
 O. Yazyev, A. J. Austin, R. Cammi, C. Pomelli, J. W. Ochterski, 
 R. L. Martin, K. Morokuma, V. G. Zakrzewski, G. A. Voth, 
 P. Salvador, J. J. Dannenberg, S. Dapprich, A. D. Daniels, 
 O. Farkas, J. B. Foresman, J. V. Ortiz, J. Cioslowski, 
 and D. J. Fox, Gaussian, Inc., Wallingford CT, 2009.
 
 ******************************************
 Gaussian 09:  AM64L-G09RevA.02 11-Jun-2009
                29-Apr-2014 
 ******************************************
 %NPROC=12
 Will use up to   12 processors via shared memory.
 %MEM=500MB
 --------------------------------------------------
 #P M06 6-311G** FREQ # GFINPUT IOP(6/7=3) POP=FULL
 --------------------------------------------------
 1/10=4,30=1,38=1/1,3;
 2/12=2,17=6,18=5,40=1/2;
 3/5=4,6=6,7=101,11=2,16=1,24=10,25=1,30=1,71=2,74=-54/1,2,3;
 4//1;
 5/5=2,38=5,98=1/2;
 8/6=4,10=90,11=11/1;
 11/6=1,8=1,9=11,15=111,16=1/1,2,10;
 10/6=1/2;
 6/7=3,18=1,28=1/1;
 7/8=1,10=1,25=1/1,2,3,16;
 1/10=4,30=1/3;
 99//99;
 Leave Link    1 at Tue Apr 29 14:51:18 2014, MaxMem=   65536000 cpu:       0.3
 (Enter /apps/gaussian/g09/l101.exe)
 ---------------------
 RC, from TS reverse 4
 ---------------------
 Symbolic Z-matrix:
 Charge =  0 Multiplicity = 2
 7                    -0.10609  -0.06127   0.09555 
 7                    -0.23629  -0.02408   1.21887 
 7                     0.28544  -0.01462  -1.0769 
 1                    -0.49483  -0.01967  -1.73179 
 1                     1.28606   1.4087   -1.56842 
 
 NAtoms=      5 NQM=      5 NQMF=      0 NMic=      0 NMicF=      0 NTot=      5.
                    Isotopes and Nuclear Properties:
 (Nuclear quadrupole moments (NQMom) in fm**2, nuclear magnetic moments (NMagM)
  in nuclear magnetons)

  Atom         1           2           3           4           5
 IAtWgt=          14          14          14           1           1
 AtmWgt=  14.0030740  14.0030740  14.0030740   1.0078250   1.0078250
 NucSpn=           2           2           2           1           1
 AtZEff=   0.0000000   0.0000000   0.0000000   0.0000000   0.0000000
 NQMom=    2.0440000   2.0440000   2.0440000   0.0000000   0.0000000
 NMagM=    0.4037610   0.4037610   0.4037610   2.7928460   2.7928460
 Leave Link  101 at Tue Apr 29 14:51:18 2014, MaxMem=   65536000 cpu:       0.6
 (Enter /apps/gaussian/g09/l103.exe)

 GradGradGradGradGradGradGradGradGradGradGradGradGradGradGradGradGradGrad
 Berny optimization.
 Initialization pass.
 Trust Radius=3.00D-01 FncErr=1.00D-07 GrdErr=1.00D-07
 Number of steps in this run=   2 maximum allowed number of steps=   2.
 GradGradGradGradGradGradGradGradGradGradGradGradGradGradGradGradGradGrad

 Leave Link  103 at Tue Apr 29 14:51:18 2014, MaxMem=   65536000 cpu:       0.1
 (Enter /apps/gaussian/g09/l202.exe)
                          Input orientation:                          
 ---------------------------------------------------------------------
 Center     Atomic      Atomic             Coordinates (Angstroms)
 Number     Number       Type             X           Y           Z
 ---------------------------------------------------------------------
      1          7           0       -0.106090   -0.061267    0.095553
      2          7           0       -0.236293   -0.024082    1.218868
      3          7           0        0.285437   -0.014621   -1.076899
      4          1           0       -0.494833   -0.019667   -1.731792
      5          1           0        1.286064    1.408701   -1.568422
 ---------------------------------------------------------------------
                    Distance matrix (angstroms):
                    1          2          3          4          5
     1  N    0.000000
     2  N    1.131447   0.000000
     3  N    1.236977   2.354323   0.000000
     4  H    1.868700   2.961968   1.018691   0.000000
     5  H    2.620632   3.484168   1.807953   2.288781   0.000000
 Stoichiometry    H2N3(2)
 Framework group  C1[X(H2N3)]
 Deg. of freedom     9
 Full point group                 C1      NOp   1
 Largest Abelian subgroup         C1      NOp   1
 Largest concise Abelian subgroup C1      NOp   1
                         Standard orientation:                         
 ---------------------------------------------------------------------
 Center     Atomic      Atomic             Coordinates (Angstroms)
 Number     Number       Type             X           Y           Z
 ---------------------------------------------------------------------
      1          7           0        0.200445   -0.105110    0.008477
      2          7           0        1.310974    0.111175    0.019293
      3          7           0       -1.029219   -0.101624   -0.125789
      4          1           0       -1.474182   -0.780185    0.490081
      5          1           0       -1.901212    1.449099    0.196048
 ---------------------------------------------------------------------
 Rotational constants (GHZ):    140.5172238     11.0823054     10.4714524
 Leave Link  202 at Tue Apr 29 14:51:18 2014, MaxMem=   65536000 cpu:       0.0
 (Enter /apps/gaussian/g09/l301.exe)
 Standard basis: 6-311G(d,p) (5D, 7F)
 Ernie: Thresh=  0.10000D-02 Tol=  0.10000D-05 Strict=F.
 AO basis set in the form of general basis input (Overlap normalization):
      1 0
 S   6 1.00       0.000000000000
      0.6293480000D+04  0.1969788147D-02
      0.9490440000D+03  0.1496128592D-01
      0.2187760000D+03  0.7350053084D-01
      0.6369160000D+02  0.2489367658D+00
      0.1882820000D+02  0.6024594331D+00
      0.2720230000D+01  0.2562017589D+00
 SP   3 1.00       0.000000000000
      0.3063310000D+02  0.1119060795D+00  0.3831191864D-01
      0.7026140000D+01  0.9216666549D+00  0.2374031155D+00
      0.2112050000D+01 -0.2569191826D-02  0.8175923978D+00
 SP   1 1.00       0.000000000000
      0.6840090000D+00  0.1000000000D+01  0.1000000000D+01
 SP   1 1.00       0.000000000000
      0.2008780000D+00  0.1000000000D+01  0.1000000000D+01
 D   1 1.00       0.000000000000
      0.9130000000D+00  0.1000000000D+01
 ****
      2 0
 S   6 1.00       0.000000000000
      0.6293480000D+04  0.1969788147D-02
      0.9490440000D+03  0.1496128592D-01
      0.2187760000D+03  0.7350053084D-01
      0.6369160000D+02  0.2489367658D+00
      0.1882820000D+02  0.6024594331D+00
      0.2720230000D+01  0.2562017589D+00
 SP   3 1.00       0.000000000000
      0.3063310000D+02  0.1119060795D+00  0.3831191864D-01
      0.7026140000D+01  0.9216666549D+00  0.2374031155D+00
      0.2112050000D+01 -0.2569191826D-02  0.8175923978D+00
 SP   1 1.00       0.000000000000
      0.6840090000D+00  0.1000000000D+01  0.1000000000D+01
 SP   1 1.00       0.000000000000
      0.2008780000D+00  0.1000000000D+01  0.1000000000D+01
 D   1 1.00       0.000000000000
      0.9130000000D+00  0.1000000000D+01
 ****
      3 0
 S   6 1.00       0.000000000000
      0.6293480000D+04  0.1969788147D-02
      0.9490440000D+03  0.1496128592D-01
      0.2187760000D+03  0.7350053084D-01
      0.6369160000D+02  0.2489367658D+00
      0.1882820000D+02  0.6024594331D+00
      0.2720230000D+01  0.2562017589D+00
 SP   3 1.00       0.000000000000
      0.3063310000D+02  0.1119060795D+00  0.3831191864D-01
      0.7026140000D+01  0.9216666549D+00  0.2374031155D+00
      0.2112050000D+01 -0.2569191826D-02  0.8175923978D+00
 SP   1 1.00       0.000000000000
      0.6840090000D+00  0.1000000000D+01  0.1000000000D+01
 SP   1 1.00       0.000000000000
      0.2008780000D+00  0.1000000000D+01  0.1000000000D+01
 D   1 1.00       0.000000000000
      0.9130000000D+00  0.1000000000D+01
 ****
      4 0
 S   3 1.00       0.000000000000
      0.3386500000D+02  0.2549381454D-01
      0.5094790000D+01  0.1903731086D+00
      0.1158790000D+01  0.8521614860D+00
 S   1 1.00       0.000000000000
      0.3258400000D+00  0.1000000000D+01
 S   1 1.00       0.000000000000
      0.1027410000D+00  0.1000000000D+01
 P   1 1.00       0.000000000000
      0.7500000000D+00  0.1000000000D+01
 ****
      5 0
 S   3 1.00       0.000000000000
      0.3386500000D+02  0.2549381454D-01
      0.5094790000D+01  0.1903731086D+00
      0.1158790000D+01  0.8521614860D+00
 S   1 1.00       0.000000000000
      0.3258400000D+00  0.1000000000D+01
 S   1 1.00       0.000000000000
      0.1027410000D+00  0.1000000000D+01
 P   1 1.00       0.000000000000
      0.7500000000D+00  0.1000000000D+01
 ****

 There are    66 symmetry adapted basis functions of A   symmetry.
 Integral buffers will be    131072 words long.
 Raffenetti 2 integral format.
 Two-electron integral symmetry is turned on.
    66 basis functions,   112 primitive gaussians,    69 cartesian basis functions
    12 alpha electrons       11 beta electrons
       nuclear repulsion energy        66.5189053783 Hartrees.
 IExCor= 4235 DFT=T Ex+Corr=M06 ExCW=0 ScaHFX=  0.270000
 ScaDFX=  1.000000  1.000000  1.000000  1.000000 ScalE2=  1.000000  1.000000
 IRadAn=      0 IRanWt=     -1 IRanGd=            0 ICorTp=0
 NAtoms=    5 NActive=    5 NUniq=    5 SFac= 7.50D-01 NAtFMM=   80 NAOKFM=F Big=F
 Leave Link  301 at Tue Apr 29 14:51:18 2014, MaxMem=   65536000 cpu:       0.4
 (Enter /apps/gaussian/g09/l302.exe)
 NPDir=0 NMtPBC=     1 NCelOv=     1 NCel=       1 NClECP=     1 NCelD=      1
         NCelK=      1 NCelE2=     1 NClLst=     1 CellRange=     0.0.
 One-electron integrals computed using PRISM.
 NBasis=    66 RedAO= T  NBF=    66
 NBsUse=    66 1.00D-06 NBFU=    66
 Precomputing XC quadrature grid using
 IXCGrd= 2 IRadAn=           0 IRanWt=          -1 IRanGd=           0 AccXCQ= 1.00D-10.
 NRdTot=     311 NPtTot=       39452 NUsed=       41707 NTot=       41739
 NSgBfM=    69    69    69    69    69 NAtAll=     5     5.
 Leave Link  302 at Tue Apr 29 14:51:18 2014, MaxMem=   65536000 cpu:       1.4
 (Enter /apps/gaussian/g09/l303.exe)
 DipDrv:  MaxL=1.
 Leave Link  303 at Tue Apr 29 14:51:18 2014, MaxMem=   65536000 cpu:       0.2
 (Enter /apps/gaussian/g09/l401.exe)
 Harris functional with IExCor= 1009 diagonalized for initial guess.
 ExpMin= 1.03D-01 ExpMax= 6.29D+03 ExpMxC= 9.49D+02 IAcc=1 IRadAn=         1 AccDes= 0.00D+00
 HarFok:  IExCor= 1009 AccDes= 0.00D+00 IRadAn=         1 IDoV= 1
 ScaDFX=  1.000000  1.000000  1.000000  1.000000
 FoFCou: FMM=F IPFlag=           0 FMFlag=      100000 FMFlg1=           0
         NFxFlg=           0 DoJE=T BraDBF=F KetDBF=T FulRan=T
         Omega=  0.000000  0.000000  1.000000  0.000000  0.000000 ICntrl=     500 IOpCl=  0
         NMat0=    1 NMatS0=    1 NMatT0=    0 NMatD0=    1 NMtDS0=    0 NMtDT0=    0
         I1Cent=           4 NGrid=           0.
 Petite list used in FoFCou.
 Harris En= -165.165573280718    
 Initial guess orbital symmetries:
 Alpha Orbitals:
       Occupied  (A) (A) (A) (A) (A) (A) (A) (A) (A) (A) (A) (A)
       Virtual   (A) (A) (A) (A) (A) (A) (A) (A) (A) (A) (A) (A)
                 (A) (A) (A) (A) (A) (A) (A) (A) (A) (A) (A) (A)
                 (A) (A) (A) (A) (A) (A) (A) (A) (A) (A) (A) (A)
                 (A) (A) (A) (A) (A) (A) (A) (A) (A) (A) (A) (A)
                 (A) (A) (A) (A) (A) (A)
 Beta  Orbitals:
       Occupied  (A) (A) (A) (A) (A) (A) (A) (A) (A) (A) (A)
       Virtual   (A) (A) (A) (A) (A) (A) (A) (A) (A) (A) (A) (A)
                 (A) (A) (A) (A) (A) (A) (A) (A) (A) (A) (A) (A)
                 (A) (A) (A) (A) (A) (A) (A) (A) (A) (A) (A) (A)
                 (A) (A) (A) (A) (A) (A) (A) (A) (A) (A) (A) (A)
                 (A) (A) (A) (A) (A) (A) (A)
 The electronic state of the initial guess is 2-A.
 Initial guess <Sx>= 0.0000 <Sy>= 0.0000 <Sz>= 0.5000 <S**2>= 0.7500 S= 0.5000
 Leave Link  401 at Tue Apr 29 14:51:18 2014, MaxMem=   65536000 cpu:       2.1
 (Enter /apps/gaussian/g09/l502.exe)
 UHF open shell SCF:
 Requested convergence on RMS density matrix=1.00D-08 within 128 cycles.
 Requested convergence on MAX density matrix=1.00D-06.
 Requested convergence on             energy=1.00D-06.
 No special actions if energy rises.
 Using DIIS extrapolation, IDIIS=  1040.
 Integral symmetry usage will be decided dynamically.
        41649 words used for storage of precomputed grid.
 Keep R1 and R2 ints in memory in canonical form, NReq=6799222.
 IEnd=       75419 IEndB=       75419 NGot=    65536000 MDV=    59647384
 LenX=    59647384 LenY=    59642182
 Symmetry not used in FoFDir.
 MinBra= 0 MaxBra= 2 Meth= 1.
 IRaf=       0 NMat=   1 IRICut=       1 DoRegI=T DoRafI=F ISym2E= 0 JSym2E=0.
 Integral accuracy reduced to 1.0D-05 until final iterations.

 Cycle   1  Pass 0  IDiag  1:
 E= -165.180036139286    
 DIIS: error= 2.51D-02 at cycle   1 NSaved=   1.
 NSaved= 1 IEnMin= 1 EnMin= -165.180036139286     IErMin= 1 ErrMin= 2.51D-02
 ErrMax= 2.51D-02 EMaxC= 1.00D-01 BMatC= 2.09D-01 BMatP= 2.09D-01
 IDIUse=3 WtCom= 7.49D-01 WtEn= 2.51D-01
 Coeff-Com:  0.100D+01
 Coeff-En:   0.100D+01
 Coeff:      0.100D+01
 Gap=     0.179 Goal=   None    Shift=    0.000
 DSYEVD returned Info=        2344 IAlg= 4 N=    66 NDim=    66 NE2=      903668 trying DSYEV.
 Gap=     0.203 Goal=   None    Shift=    0.000
 GapD=    0.179 DampG=1.000 DampE=0.500 DampFc=0.5000 IDamp=-1.
 Damping current iteration by 5.00D-01
 RMSDP=5.86D-03 MaxDP=1.33D-01              OVMax= 1.37D-01

 Cycle   2  Pass 0  IDiag  1:
 E= -165.192766134536     Delta-E=       -0.012729995250 Rises=F Damp=T
 DIIS: error= 8.95D-03 at cycle   2 NSaved=   2.
 NSaved= 2 IEnMin= 2 EnMin= -165.192766134536     IErMin= 2 ErrMin= 8.95D-03
 ErrMax= 8.95D-03 EMaxC= 1.00D-01 BMatC= 3.37D-02 BMatP= 2.09D-01
 IDIUse=3 WtCom= 9.10D-01 WtEn= 8.95D-02
 Coeff-Com:  0.219D+00 0.781D+00
 Coeff-En:   0.313D+00 0.687D+00
 Coeff:      0.228D+00 0.772D+00
 Gap=     0.182 Goal=   None    Shift=    0.000
 Gap=     0.227 Goal=   None    Shift=    0.000
 RMSDP=1.32D-03 MaxDP=2.11D-02 DE=-1.27D-02 OVMax= 8.92D-02

 Cycle   3  Pass 0  IDiag  1:
 E= -165.220459158521     Delta-E=       -0.027693023985 Rises=F Damp=F
 DIIS: error= 7.87D-03 at cycle   3 NSaved=   3.
 NSaved= 3 IEnMin= 3 EnMin= -165.220459158521     IErMin= 3 ErrMin= 7.87D-03
 ErrMax= 7.87D-03 EMaxC= 1.00D-01 BMatC= 1.21D-02 BMatP= 3.37D-02
 IDIUse=3 WtCom= 9.21D-01 WtEn= 7.87D-02
 Coeff-Com:  0.495D-01 0.359D+00 0.592D+00
 Coeff-En:   0.000D+00 0.000D+00 0.100D+01
 Coeff:      0.456D-01 0.331D+00 0.624D+00
 Gap=     0.183 Goal=   None    Shift=    0.000
 Gap=     0.242 Goal=   None    Shift=    0.000
 RMSDP=9.07D-04 MaxDP=1.16D-02 DE=-2.77D-02 OVMax= 3.44D-02

 Cycle   4  Pass 0  IDiag  1:
 E= -165.220530625557     Delta-E=       -0.000071467036 Rises=F Damp=F
 DIIS: error= 1.04D-02 at cycle   4 NSaved=   4.
 NSaved= 4 IEnMin= 4 EnMin= -165.220530625557     IErMin= 3 ErrMin= 7.87D-03
 ErrMax= 1.04D-02 EMaxC= 1.00D-01 BMatC= 1.26D-02 BMatP= 1.21D-02
 IDIUse=3 WtCom= 8.96D-01 WtEn= 1.04D-01
 Coeff-Com:  0.203D-02 0.126D+00 0.494D+00 0.379D+00
 Coeff-En:   0.000D+00 0.000D+00 0.494D+00 0.506D+00
 Coeff:      0.182D-02 0.113D+00 0.494D+00 0.392D+00
 Gap=     0.181 Goal=   None    Shift=    0.000
 Gap=     0.242 Goal=   None    Shift=    0.000
 RMSDP=5.87D-04 MaxDP=6.06D-03 DE=-7.15D-05 OVMax= 2.51D-02

 Cycle   5  Pass 0  IDiag  1:
 E= -165.223092294785     Delta-E=       -0.002561669228 Rises=F Damp=F
 DIIS: error= 2.39D-03 at cycle   5 NSaved=   5.
 NSaved= 5 IEnMin= 5 EnMin= -165.223092294785     IErMin= 5 ErrMin= 2.39D-03
 ErrMax= 2.39D-03 EMaxC= 1.00D-01 BMatC= 8.22D-04 BMatP= 1.21D-02
 IDIUse=3 WtCom= 9.76D-01 WtEn= 2.39D-02
 Coeff-Com: -0.109D-01-0.307D-02 0.166D+00 0.236D+00 0.611D+00
 Coeff-En:   0.000D+00 0.000D+00 0.000D+00 0.382D-01 0.962D+00
 Coeff:     -0.106D-01-0.300D-02 0.162D+00 0.232D+00 0.620D+00
 Gap=     0.187 Goal=   None    Shift=    0.000
 Gap=     0.243 Goal=   None    Shift=    0.000
 RMSDP=2.81D-04 MaxDP=4.65D-03 DE=-2.56D-03 OVMax= 1.54D-02

 Cycle   6  Pass 0  IDiag  1:
 E= -165.223344831637     Delta-E=       -0.000252536852 Rises=F Damp=F
 DIIS: error= 8.12D-04 at cycle   6 NSaved=   6.
 NSaved= 6 IEnMin= 6 EnMin= -165.223344831637     IErMin= 6 ErrMin= 8.12D-04
 ErrMax= 8.12D-04 EMaxC= 1.00D-01 BMatC= 9.04D-05 BMatP= 8.22D-04
 IDIUse=3 WtCom= 9.92D-01 WtEn= 8.12D-03
 Coeff-Com: -0.751D-02-0.110D-01-0.774D-01-0.810D-01 0.128D+00 0.105D+01
 Coeff-En:   0.000D+00 0.000D+00 0.000D+00 0.000D+00 0.000D+00 0.100D+01
 Coeff:     -0.745D-02-0.109D-01-0.768D-01-0.803D-01 0.127D+00 0.105D+01
 Gap=     0.188 Goal=   None    Shift=    0.000
 Gap=     0.246 Goal=   None    Shift=    0.000
 RMSDP=1.23D-04 MaxDP=1.80D-03 DE=-2.53D-04 OVMax= 7.43D-03

 Cycle   7  Pass 0  IDiag  1:
 E= -165.223396274014     Delta-E=       -0.000051442378 Rises=F Damp=F
 DIIS: error= 1.64D-04 at cycle   7 NSaved=   7.
 NSaved= 7 IEnMin= 7 EnMin= -165.223396274014     IErMin= 7 ErrMin= 1.64D-04
 ErrMax= 1.64D-04 EMaxC= 1.00D-01 BMatC= 4.61D-06 BMatP= 9.04D-05
 IDIUse=3 WtCom= 9.98D-01 WtEn= 1.64D-03
 Coeff-Com: -0.397D-03 0.970D-03-0.247D-01-0.336D-01-0.745D-01 0.152D+00
 Coeff-Com:  0.980D+00
 Coeff-En:   0.000D+00 0.000D+00 0.000D+00 0.000D+00 0.000D+00 0.000D+00
 Coeff-En:   0.100D+01
 Coeff:     -0.396D-03 0.968D-03-0.246D-01-0.335D-01-0.744D-01 0.152D+00
 Coeff:      0.980D+00
 Gap=     0.188 Goal=   None    Shift=    0.000
 Gap=     0.247 Goal=   None    Shift=    0.000
 RMSDP=4.91D-05 MaxDP=8.50D-04 DE=-5.14D-05 OVMax= 2.26D-03

 Cycle   8  Pass 0  IDiag  1:
 E= -165.223399991357     Delta-E=       -0.000003717342 Rises=F Damp=F
 DIIS: error= 4.89D-05 at cycle   8 NSaved=   8.
 NSaved= 8 IEnMin= 8 EnMin= -165.223399991357     IErMin= 8 ErrMin= 4.89D-05
 ErrMax= 4.89D-05 EMaxC= 1.00D-01 BMatC= 2.26D-07 BMatP= 4.61D-06
 IDIUse=1 WtCom= 1.00D+00 WtEn= 0.00D+00
 Coeff-Com:  0.376D-03 0.691D-03 0.505D-02 0.251D-02-0.537D-02-0.546D-01
 Coeff-Com: -0.358D-01 0.109D+01
 Coeff:      0.376D-03 0.691D-03 0.505D-02 0.251D-02-0.537D-02-0.546D-01
 Coeff:     -0.358D-01 0.109D+01
 Gap=     0.188 Goal=   None    Shift=    0.000
 Gap=     0.247 Goal=   None    Shift=    0.000
 RMSDP=1.08D-05 MaxDP=1.52D-04 DE=-3.72D-06 OVMax= 5.23D-04

 Cycle   9  Pass 0  IDiag  1:
 E= -165.223400228163     Delta-E=       -0.000000236806 Rises=F Damp=F
 DIIS: error= 1.08D-05 at cycle   9 NSaved=   9.
 NSaved= 9 IEnMin= 9 EnMin= -165.223400228163     IErMin= 9 ErrMin= 1.08D-05
 ErrMax= 1.08D-05 EMaxC= 1.00D-01 BMatC= 2.23D-08 BMatP= 2.26D-07
 IDIUse=1 WtCom= 1.00D+00 WtEn= 0.00D+00
 Coeff-Com: -0.327D-04 0.130D-03 0.208D-02 0.279D-02 0.654D-02-0.136D-01
 Coeff-Com: -0.841D-01 0.543D-02 0.108D+01
 Coeff:     -0.327D-04 0.130D-03 0.208D-02 0.279D-02 0.654D-02-0.136D-01
 Coeff:     -0.841D-01 0.543D-02 0.108D+01
 Gap=     0.188 Goal=   None    Shift=    0.000
 Gap=     0.247 Goal=   None    Shift=    0.000
 RMSDP=3.64D-06 MaxDP=3.88D-05 DE=-2.37D-07 OVMax= 1.77D-04

 Initial convergence to 1.0D-05 achieved.  Increase integral accuracy.
 Cycle  10  Pass 1  IDiag  1:
 E= -165.223400000504     Delta-E=        0.000000227658 Rises=F Damp=F
 DIIS: error= 2.42D-04 at cycle   1 NSaved=   1.
 NSaved= 1 IEnMin= 1 EnMin= -165.223400000504     IErMin= 1 ErrMin= 2.42D-04
 ErrMax= 2.42D-04 EMaxC= 1.00D-01 BMatC= 2.16D-05 BMatP= 2.16D-05
 IDIUse=3 WtCom= 9.98D-01 WtEn= 2.42D-03
 Coeff-Com:  0.100D+01
 Coeff-En:   0.100D+01
 Coeff:      0.100D+01
 Gap=     0.188 Goal=   None    Shift=    0.000
 Gap=     0.247 Goal=   None    Shift=    0.000
 RMSDP=3.64D-06 MaxDP=3.88D-05 DE= 2.28D-07 OVMax= 6.67D-04

 Cycle  11  Pass 1  IDiag  1:
 E= -165.223404153319     Delta-E=       -0.000004152815 Rises=F Damp=F
 DIIS: error= 2.18D-05 at cycle   2 NSaved=   2.
 NSaved= 2 IEnMin= 2 EnMin= -165.223404153319     IErMin= 2 ErrMin= 2.18D-05
 ErrMax= 2.18D-05 EMaxC= 1.00D-01 BMatC= 1.43D-07 BMatP= 2.16D-05
 IDIUse=1 WtCom= 1.00D+00 WtEn= 0.00D+00
 Coeff-Com:  0.122D-01 0.988D+00
 Coeff:      0.122D-01 0.988D+00
 Gap=     0.188 Goal=   None    Shift=    0.000
 Gap=     0.247 Goal=   None    Shift=    0.000
 RMSDP=6.22D-06 MaxDP=1.02D-04 DE=-4.15D-06 OVMax= 1.02D-04

 Cycle  12  Pass 1  IDiag  1:
 E= -165.223404126461     Delta-E=        0.000000026859 Rises=F Damp=F
 DIIS: error= 3.64D-05 at cycle   3 NSaved=   3.
 NSaved= 3 IEnMin= 2 EnMin= -165.223404153319     IErMin= 2 ErrMin= 2.18D-05
 ErrMax= 3.64D-05 EMaxC= 1.00D-01 BMatC= 3.45D-07 BMatP= 1.43D-07
 IDIUse=1 WtCom= 1.00D+00 WtEn= 0.00D+00
 Coeff-Com:  0.147D-02 0.630D+00 0.369D+00
 Coeff:      0.147D-02 0.630D+00 0.369D+00
 Gap=     0.188 Goal=   None    Shift=    0.000
 Gap=     0.247 Goal=   None    Shift=    0.000
 RMSDP=2.97D-06 MaxDP=3.95D-05 DE= 2.69D-08 OVMax= 1.01D-04

 Cycle  13  Pass 1  IDiag  1:
 E= -165.223404181892     Delta-E=       -0.000000055431 Rises=F Damp=F
 DIIS: error= 2.06D-05 at cycle   4 NSaved=   4.
 NSaved= 4 IEnMin= 4 EnMin= -165.223404181892     IErMin= 4 ErrMin= 2.06D-05
 ErrMax= 2.06D-05 EMaxC= 1.00D-01 BMatC= 4.41D-08 BMatP= 1.43D-07
 IDIUse=1 WtCom= 1.00D+00 WtEn= 0.00D+00
 Coeff-Com: -0.214D-02 0.151D+00 0.255D+00 0.596D+00
 Coeff:     -0.214D-02 0.151D+00 0.255D+00 0.596D+00
 Gap=     0.188 Goal=   None    Shift=    0.000
 Gap=     0.247 Goal=   None    Shift=    0.000
 RMSDP=1.74D-06 MaxDP=1.95D-05 DE=-5.54D-08 OVMax= 7.92D-05

 Cycle  14  Pass 1  IDiag  1:
 E= -165.223404189029     Delta-E=       -0.000000007137 Rises=F Damp=F
 DIIS: error= 1.08D-05 at cycle   5 NSaved=   5.
 NSaved= 5 IEnMin= 5 EnMin= -165.223404189029     IErMin= 5 ErrMin= 1.08D-05
 ErrMax= 1.08D-05 EMaxC= 1.00D-01 BMatC= 1.48D-08 BMatP= 4.41D-08
 IDIUse=1 WtCom= 1.00D+00 WtEn= 0.00D+00
 Coeff-Com: -0.183D-02-0.476D-02 0.107D+00 0.443D+00 0.457D+00
 Coeff:     -0.183D-02-0.476D-02 0.107D+00 0.443D+00 0.457D+00
 Gap=     0.188 Goal=   None    Shift=    0.000
 Gap=     0.247 Goal=   None    Shift=    0.000
 RMSDP=6.35D-07 MaxDP=7.15D-06 DE=-7.14D-09 OVMax= 2.38D-05

 Cycle  15  Pass 1  IDiag  1:
 E= -165.223404192463     Delta-E=       -0.000000003434 Rises=F Damp=F
 DIIS: error= 1.78D-06 at cycle   6 NSaved=   6.
 NSaved= 6 IEnMin= 6 EnMin= -165.223404192463     IErMin= 6 ErrMin= 1.78D-06
 ErrMax= 1.78D-06 EMaxC= 1.00D-01 BMatC= 5.35D-10 BMatP= 1.48D-08
 IDIUse=1 WtCom= 1.00D+00 WtEn= 0.00D+00
 Coeff-Com: -0.700D-03-0.150D-01 0.253D-01 0.156D+00 0.196D+00 0.638D+00
 Coeff:     -0.700D-03-0.150D-01 0.253D-01 0.156D+00 0.196D+00 0.638D+00
 Gap=     0.188 Goal=   None    Shift=    0.000
 Gap=     0.247 Goal=   None    Shift=    0.000
 RMSDP=1.83D-07 MaxDP=2.67D-06 DE=-3.43D-09 OVMax= 9.08D-06

 Cycle  16  Pass 1  IDiag  1:
 E= -165.223404192649     Delta-E=       -0.000000000187 Rises=F Damp=F
 DIIS: error= 5.95D-07 at cycle   7 NSaved=   7.
 NSaved= 7 IEnMin= 7 EnMin= -165.223404192649     IErMin= 7 ErrMin= 5.95D-07
 ErrMax= 5.95D-07 EMaxC= 1.00D-01 BMatC= 9.34D-11 BMatP= 5.35D-10
 IDIUse=1 WtCom= 1.00D+00 WtEn= 0.00D+00
 Coeff-Com:  0.262D-03-0.549D-02-0.163D-01-0.613D-01-0.716D-01 0.161D+00
 Coeff-Com:  0.994D+00
 Coeff:      0.262D-03-0.549D-02-0.163D-01-0.613D-01-0.716D-01 0.161D+00
 Coeff:      0.994D+00
 Gap=     0.188 Goal=   None    Shift=    0.000
 Gap=     0.247 Goal=   None    Shift=    0.000
 RMSDP=1.59D-07 MaxDP=2.16D-06 DE=-1.87D-10 OVMax= 7.62D-06

 Cycle  17  Pass 1  IDiag  1:
 E= -165.223404192721     Delta-E=       -0.000000000071 Rises=F Damp=F
 DIIS: error= 2.54D-07 at cycle   8 NSaved=   8.
 NSaved= 8 IEnMin= 8 EnMin= -165.223404192721     IErMin= 8 ErrMin= 2.54D-07
 ErrMax= 2.54D-07 EMaxC= 1.00D-01 BMatC= 9.60D-12 BMatP= 9.34D-11
 IDIUse=1 WtCom= 1.00D+00 WtEn= 0.00D+00
 Coeff-Com:  0.159D-03 0.248D-02-0.394D-02-0.334D-01-0.426D-01-0.807D-01
 Coeff-Com:  0.162D-01 0.114D+01
 Coeff:      0.159D-03 0.248D-02-0.394D-02-0.334D-01-0.426D-01-0.807D-01
 Coeff:      0.162D-01 0.114D+01
 Gap=     0.188 Goal=   None    Shift=    0.000
 Gap=     0.247 Goal=   None    Shift=    0.000
 RMSDP=8.77D-08 MaxDP=1.20D-06 DE=-7.11D-11 OVMax= 4.12D-06

 Cycle  18  Pass 1  IDiag  1:
 E= -165.223404192736     Delta-E=       -0.000000000016 Rises=F Damp=F
 DIIS: error= 1.22D-07 at cycle   9 NSaved=   9.
 NSaved= 9 IEnMin= 9 EnMin= -165.223404192736     IErMin= 9 ErrMin= 1.22D-07
 ErrMax= 1.22D-07 EMaxC= 1.00D-01 BMatC= 1.53D-12 BMatP= 9.60D-12
 IDIUse=1 WtCom= 1.00D+00 WtEn= 0.00D+00
 Coeff-Com: -0.278D-04 0.423D-03 0.139D-02 0.763D-02 0.506D-02-0.119D-01
 Coeff-Com: -0.132D+00 0.233D-02 0.113D+01
 Coeff:     -0.278D-04 0.423D-03 0.139D-02 0.763D-02 0.506D-02-0.119D-01
 Coeff:     -0.132D+00 0.233D-02 0.113D+01
 Gap=     0.188 Goal=   None    Shift=    0.000
 Gap=     0.247 Goal=   None    Shift=    0.000
 RMSDP=3.26D-08 MaxDP=4.53D-07 DE=-1.57D-11 OVMax= 1.49D-06

 Cycle  19  Pass 1  IDiag  1:
 E= -165.223404192738     Delta-E=       -0.000000000002 Rises=F Damp=F
 DIIS: error= 5.27D-08 at cycle  10 NSaved=  10.
 NSaved=10 IEnMin=10 EnMin= -165.223404192738     IErMin=10 ErrMin= 5.27D-08
 ErrMax= 5.27D-08 EMaxC= 1.00D-01 BMatC= 2.21D-13 BMatP= 1.53D-12
 IDIUse=1 WtCom= 1.00D+00 WtEn= 0.00D+00
 Coeff-Com: -0.205D-04-0.394D-03 0.569D-03 0.495D-02 0.537D-02 0.123D-01
 Coeff-Com:  0.195D-01-0.186D+00-0.192D+00 0.134D+01
 Coeff:     -0.205D-04-0.394D-03 0.569D-03 0.495D-02 0.537D-02 0.123D-01
 Coeff:      0.195D-01-0.186D+00-0.192D+00 0.134D+01
 Gap=     0.188 Goal=   None    Shift=    0.000
 Gap=     0.247 Goal=   None    Shift=    0.000
 RMSDP=1.48D-08 MaxDP=1.80D-07 DE=-2.10D-12 OVMax= 6.41D-07

 Cycle  20  Pass 1  IDiag  1:
 E= -165.223404192739     Delta-E=       -0.000000000000 Rises=F Damp=F
 DIIS: error= 2.32D-08 at cycle  11 NSaved=  11.
 NSaved=11 IEnMin=11 EnMin= -165.223404192739     IErMin=11 ErrMin= 2.32D-08
 ErrMax= 2.32D-08 EMaxC= 1.00D-01 BMatC= 3.32D-14 BMatP= 2.21D-13
 IDIUse=1 WtCom= 1.00D+00 WtEn= 0.00D+00
 Coeff-Com:  0.224D-05-0.889D-04-0.135D-03-0.104D-02-0.382D-03 0.170D-02
 Coeff-Com:  0.242D-01-0.162D-01-0.167D+00 0.948D-01 0.106D+01
 Coeff:      0.224D-05-0.889D-04-0.135D-03-0.104D-02-0.382D-03 0.170D-02
 Coeff:      0.242D-01-0.162D-01-0.167D+00 0.948D-01 0.106D+01
 Gap=     0.188 Goal=   None    Shift=    0.000
 Gap=     0.247 Goal=   None    Shift=    0.000
 RMSDP=4.15D-09 MaxDP=5.75D-08 DE=-2.27D-13 OVMax= 1.81D-07

 SCF Done:  E(UM06) =  -165.223404193     A.U. after   20 cycles
             Convg  =    0.4149D-08             -V/T =  2.0020
 <Sx>= 0.0000 <Sy>= 0.0000 <Sz>= 0.5000 <S**2>= 0.7585 S= 0.5042
 <L.S>=  0.00000000000    
 KE= 1.649014514927D+02 PE=-5.194637988646D+02 EE= 1.228200378009D+02
 Annihilation of the first spin contaminant:
 S**2 before annihilation     0.7585,   after     0.7500
 Leave Link  502 at Tue Apr 29 14:51:20 2014, MaxMem=   65536000 cpu:      17.0
 (Enter /apps/gaussian/g09/l801.exe)
 Range of M.O.s used for correlation:     1    66
 NBasis=    66 NAE=    12 NBE=    11 NFC=     0 NFV=     0
 NROrb=     66 NOA=    12 NOB=    11 NVA=    54 NVB=    55

 **** Warning!!: The largest alpha MO coefficient is  0.10285705D+02


 **** Warning!!: The largest beta MO coefficient is  0.10309238D+02

 Leave Link  801 at Tue Apr 29 14:51:20 2014, MaxMem=   65536000 cpu:       0.1
 (Enter /apps/gaussian/g09/l1101.exe)
 Using compressed storage, NAtomX=     5.
 Will process   6 centers per pass.
 Leave Link 1101 at Tue Apr 29 14:51:20 2014, MaxMem=   65536000 cpu:       1.2
 (Enter /apps/gaussian/g09/l1102.exe)
 Symmetrizing basis deriv contribution to polar:
 IMax=3 JMax=2 DiffMx= 0.00D+00
 Leave Link 1102 at Tue Apr 29 14:51:20 2014, MaxMem=   65536000 cpu:       0.2
 (Enter /apps/gaussian/g09/l1110.exe)
 Forming Gx(P) for the SCF density, NAtomX=     5.
 Integral derivatives from FoFDir/FoFCou, PRISM(SPDF).
 Do as many integral derivatives as possible in FoFDir.
 G2DrvN: MDV=      65535856.
 G2DrvN: will do     6 centers at a time, making    1 passes doing MaxLOS=2.
 Calling FoFCou, ICntrl=  3107 FMM=F I1Cent=   0 AccDes= 0.00D+00.
 FoFCou: FMM=F IPFlag=           0 FMFlag=      100000 FMFlg1=           0
         NFxFlg=           0 DoJE=F BraDBF=F KetDBF=F FulRan=T
         Omega=  0.000000  0.000000  1.000000  0.000000  0.000000 ICntrl=    3107 IOpCl=  1
         NMat0=    1 NMatS0=    1 NMatT0=    0 NMatD0=    1 NMtDS0=    0 NMtDT0=    0
         I1Cent=           0 NGrid=           0.
 Symmetry not used in FoFCou.
 FoFDir/FoFCou used for L=0 through L=2.
 End of G2Drv Frequency-dependent properties file   721 does not exist.
 End of G2Drv Frequency-dependent properties file   722 does not exist.
 Leave Link 1110 at Tue Apr 29 14:51:22 2014, MaxMem=   65536000 cpu:      19.6
 (Enter /apps/gaussian/g09/l1002.exe)
 Minotr:  UHF open shell wavefunction.
          IDoAtm=11111
          Direct CPHF calculation.
          Differentiating once with respect to electric field.
                with respect to dipole field.
          Differentiating once with respect to nuclear coordinates.
          Requested convergence is 1.0D-08 RMS, and 1.0D-07 maximum.
          Secondary convergence is 1.0D-12 RMS, and 1.0D-12 maximum.
          NewPWx=T KeepS1=F KeepF1=F KeepIn=T MapXYZ=F SortEE=F KeepMc=T.
          MDV=      65535946 using IRadAn=       2.
 Generate precomputed XC quadrature information.
          Keep R1 and R2 ints in memory in canonical form, NReq=6656460.
 Symmetry not used in FoFDir.
 MinBra= 0 MaxBra= 2 Meth= 1.
 IRaf=       0 NMat=   1 IRICut=       1 DoRegI=T DoRafI=F ISym2E= 0 JSym2E=0.
          Solving linear equations simultaneously, MaxMat=       0.
          There are    18 degrees of freedom in the 1st order CPHF.  IDoFFX=5.
     15 vectors produced by pass  0 Test12= 6.96D-15 5.56D-09 XBig12= 1.67D+02 5.70D+00.
 AX will form    15 AO Fock derivatives at one time.
     15 vectors produced by pass  1 Test12= 6.96D-15 5.56D-09 XBig12= 6.74D+01 1.40D+00.
     15 vectors produced by pass  2 Test12= 6.96D-15 5.56D-09 XBig12= 1.15D+00 2.27D-01.
     15 vectors produced by pass  3 Test12= 6.96D-15 5.56D-09 XBig12= 2.24D-02 3.66D-02.
     15 vectors produced by pass  4 Test12= 6.96D-15 5.56D-09 XBig12= 3.27D-04 3.34D-03.
     15 vectors produced by pass  5 Test12= 6.96D-15 5.56D-09 XBig12= 3.64D-06 5.19D-04.
     12 vectors produced by pass  6 Test12= 6.96D-15 5.56D-09 XBig12= 2.22D-08 2.15D-05.
      6 vectors produced by pass  7 Test12= 6.96D-15 5.56D-09 XBig12= 6.11D-11 1.15D-06.
      2 vectors produced by pass  8 Test12= 6.96D-15 5.56D-09 XBig12= 1.64D-13 7.71D-08.
 Inverted reduced A of dimension   110 with in-core refinement.
 FullF1:  Do perturbations    1 to     3.
 Isotropic polarizability for W=    0.000000       27.19 Bohr**3.
 End of Minotr Frequency-dependent properties file   721 does not exist.
 End of Minotr Frequency-dependent properties file   722 does not exist.
 Leave Link 1002 at Tue Apr 29 14:51:24 2014, MaxMem=   65536000 cpu:      24.6
 (Enter /apps/gaussian/g09/l601.exe)
 Copying SCF densities to generalized density rwf, IOpCl= 1 IROHF=0.

 **********************************************************************

            Population analysis using the SCF density.

 **********************************************************************

 Orbital symmetries:
 Alpha Orbitals:
       Occupied  (A) (A) (A) (A) (A) (A) (A) (A) (A) (A) (A) (A)
       Virtual   (A) (A) (A) (A) (A) (A) (A) (A) (A) (A) (A) (A)
                 (A) (A) (A) (A) (A) (A) (A) (A) (A) (A) (A) (A)
                 (A) (A) (A) (A) (A) (A) (A) (A) (A) (A) (A) (A)
                 (A) (A) (A) (A) (A) (A) (A) (A) (A) (A) (A) (A)
                 (A) (A) (A) (A) (A) (A)
 Beta  Orbitals:
       Occupied  (A) (A) (A) (A) (A) (A) (A) (A) (A) (A) (A)
       Virtual   (A) (A) (A) (A) (A) (A) (A) (A) (A) (A) (A) (A)
                 (A) (A) (A) (A) (A) (A) (A) (A) (A) (A) (A) (A)
                 (A) (A) (A) (A) (A) (A) (A) (A) (A) (A) (A) (A)
                 (A) (A) (A) (A) (A) (A) (A) (A) (A) (A) (A) (A)
                 (A) (A) (A) (A) (A) (A) (A)
 The electronic state is 2-A.
 Alpha  occ. eigenvalues --  -14.57156 -14.47253 -14.45442  -1.17677  -1.00948
 Alpha  occ. eigenvalues --   -0.65456  -0.55812  -0.54628  -0.48136  -0.38568
 Alpha  occ. eigenvalues --   -0.32235  -0.22559
 Alpha virt. eigenvalues --   -0.03727   0.00761   0.03803   0.22455   0.25852
 Alpha virt. eigenvalues --    0.36578   0.41951   0.45490   0.50114   0.52768
 Alpha virt. eigenvalues --    0.60287   0.64556   0.67520   0.68865   0.74271
 Alpha virt. eigenvalues --    0.77261   0.91866   1.02362   1.11831   1.22000
 Alpha virt. eigenvalues --    1.35634   1.39358   1.44980   1.49819   1.64643
 Alpha virt. eigenvalues --    1.65824   1.70422   1.82274   1.85156   2.07522
 Alpha virt. eigenvalues --    2.10220   2.17091   2.23996   2.34887   2.38859
 Alpha virt. eigenvalues --    2.45129   2.47312   2.66128   2.85192   3.02410
 Alpha virt. eigenvalues --    3.17849   3.48742   3.51290   3.63006   3.87683
 Alpha virt. eigenvalues --    3.90147   3.90716   4.08277   4.27441   4.36437
 Alpha virt. eigenvalues --    5.02921  34.96323  35.46943  36.17235
  Beta  occ. eigenvalues --  -14.57139 -14.46987 -14.45299  -1.17210  -1.00474
  Beta  occ. eigenvalues --   -0.65303  -0.54780  -0.54442  -0.47342  -0.36511
  Beta  occ. eigenvalues --   -0.31186
  Beta virt. eigenvalues --   -0.06492  -0.02458   0.02107   0.05048   0.22874
  Beta virt. eigenvalues --    0.36274   0.39140   0.41833   0.45626   0.50126
  Beta virt. eigenvalues --    0.53783   0.60505   0.65084   0.67835   0.68892
  Beta virt. eigenvalues --    0.74329   0.78058   0.92306   1.03003   1.12228
  Beta virt. eigenvalues --    1.22755   1.40507   1.45636   1.46114   1.51876
  Beta virt. eigenvalues --    1.65231   1.66369   1.70981   1.84145   1.89204
  Beta virt. eigenvalues --    2.08200   2.10971   2.20933   2.24905   2.37970
  Beta virt. eigenvalues --    2.39223   2.47428   2.63748   2.67088   2.85234
  Beta virt. eigenvalues --    3.03176   3.18185   3.48589   3.51556   3.63414
  Beta virt. eigenvalues --    3.87545   3.90654   3.91450   4.08222   4.27246
  Beta virt. eigenvalues --    4.36581   5.02906  34.96586  35.47174  36.17473
     Alpha Molecular Orbital Coefficients:
                           1         2         3         4         5
                           O         O         O         O         O
     Eigenvalues --   -14.57156 -14.47253 -14.45442  -1.17677  -1.00948
   1 1   N  1S          0.55747  -0.00327  -0.00114  -0.10537  -0.00618
   2        2S          0.46461  -0.00208  -0.00068  -0.16343  -0.01012
   3        2PX        -0.00024   0.00104  -0.00077   0.03209  -0.17889
   4        2PY         0.00021   0.00017  -0.00001   0.01424  -0.02003
   5        2PZ        -0.00015   0.00002  -0.00007  -0.00317  -0.00737
   6        3S          0.01834  -0.00283  -0.00092   0.46391   0.03429
   7        3PX         0.00236  -0.00577   0.00286   0.03178  -0.23720
   8        3PY         0.00085  -0.00100   0.00005   0.01697  -0.02590
   9        3PZ        -0.00014  -0.00010   0.00025  -0.00455  -0.00985
  10        4S         -0.00344   0.00346   0.00200   0.21108   0.02673
  11        4PX         0.00053   0.00783  -0.00813  -0.00604  -0.06822
  12        4PY        -0.00017   0.00095  -0.00030   0.00326  -0.01067
  13        4PZ         0.00008   0.00035  -0.00038  -0.00129  -0.00167
  14        5D 0       -0.00237   0.00137   0.00069  -0.01213  -0.00135
  15        5D+1        0.00039  -0.00002  -0.00035   0.00188   0.00119
  16        5D-1        0.00003  -0.00001   0.00001  -0.00066  -0.00018
  17        5D+2        0.00397  -0.00219  -0.00127   0.01955   0.00278
  18        5D-2        0.00095  -0.00094   0.00007   0.00482  -0.00224
  19 2   N  1S          0.00305   0.55743   0.00057  -0.06744   0.06526
  20        2S          0.00331   0.46514   0.00050  -0.10383   0.10171
  21        2PX        -0.00079  -0.00179  -0.00008  -0.08186   0.06887
  22        2PY        -0.00018  -0.00037   0.00003  -0.01540   0.01568
  23        2PZ         0.00001  -0.00002  -0.00003  -0.00113  -0.00006
  24        3S         -0.00318   0.01694  -0.00003   0.28973  -0.28744
  25        3PX         0.00554  -0.00410   0.00011  -0.10847   0.08941
  26        3PY         0.00121  -0.00078  -0.00015  -0.01990   0.02131
  27        3PZ        -0.00001  -0.00004   0.00011  -0.00170  -0.00046
  28        4S         -0.00104  -0.01188   0.00536   0.11401  -0.13804
  29        4PX        -0.00027   0.00402  -0.00176  -0.02239   0.02476
  30        4PY         0.00003   0.00097  -0.00065  -0.00543   0.00603
  31        4PZ        -0.00003  -0.00005  -0.00002   0.00016  -0.00026
  32        5D 0        0.00157  -0.00126   0.00004  -0.00883   0.00797
  33        5D+1        0.00002   0.00006  -0.00008   0.00048   0.00024
  34        5D-1        0.00001   0.00001  -0.00002  -0.00019   0.00024
  35        5D+2       -0.00246   0.00201  -0.00014   0.01347  -0.01129
  36        5D-2       -0.00116   0.00077   0.00015   0.00524  -0.00624
  37 3   N  1S          0.00106  -0.00057   0.55759  -0.04636  -0.08514
  38        2S          0.00124  -0.00046   0.46504  -0.07140  -0.13244
  39        2PX         0.00089   0.00013   0.00135   0.04738   0.05941
  40        2PY         0.00007   0.00006  -0.00069  -0.00411  -0.01571
  41        2PZ         0.00001  -0.00003   0.00093   0.01065   0.02384
  42        3S         -0.00102  -0.00004   0.01676   0.19843   0.37172
  43        3PX        -0.00377  -0.00029   0.00060   0.06934   0.09340
  44        3PY        -0.00036  -0.00019  -0.00074  -0.00463  -0.02276
  45        3PZ         0.00002   0.00009   0.00105   0.01457   0.03476
  46        4S          0.00047   0.00395  -0.01258   0.07576   0.20867
  47        4PX         0.00098   0.00181  -0.00337   0.00181   0.02222
  48        4PY         0.00009  -0.00002  -0.00010  -0.00538  -0.00671
  49        4PZ         0.00004   0.00012  -0.00105   0.00710   0.01472
  50        5D 0        0.00103   0.00007  -0.00051  -0.00481  -0.00772
  51        5D+1       -0.00067   0.00005  -0.00022   0.00236   0.00457
  52        5D-1       -0.00021  -0.00000  -0.00053  -0.00155  -0.00376
  53        5D+2       -0.00189  -0.00012   0.00080   0.00838   0.01351
  54        5D-2        0.00037  -0.00017   0.00049  -0.00006  -0.00188
  55 4   H  1S         -0.00031  -0.00002  -0.00007   0.02122   0.05599
  56        2S         -0.00077   0.00002  -0.00138   0.01886   0.05301
  57        3S          0.00071   0.00044   0.00137  -0.01169  -0.00932
  58        4PX        -0.00019   0.00011  -0.00077   0.00458   0.00918
  59        4PY        -0.00052   0.00001  -0.00129   0.00343   0.00897
  60        4PZ         0.00047   0.00000   0.00132  -0.00289  -0.00817
  61 5   H  1S          0.00008   0.00003  -0.00010   0.00158   0.00533
  62        2S         -0.00023  -0.00012   0.00048   0.00387   0.00491
  63        3S          0.00026   0.00015   0.00022  -0.00294  -0.00038
  64        4PX        -0.00002  -0.00001   0.00031   0.00021  -0.00022
  65        4PY         0.00001  -0.00001  -0.00032  -0.00016  -0.00048
  66        4PZ        -0.00001  -0.00000  -0.00004  -0.00006  -0.00005
                           6         7         8         9        10
                           O         O         O         O         O
     Eigenvalues --    -0.65456  -0.55812  -0.54628  -0.48136  -0.38568
   1 1   N  1S          0.04198   0.02516  -0.01834   0.02767   0.00629
   2        2S          0.06695   0.04064  -0.02953   0.04467   0.01031
   3        2PX         0.09539  -0.00817  -0.02675  -0.12013   0.02646
   4        2PY        -0.03290   0.21008   0.03068  -0.04383  -0.06574
   5        2PZ         0.05298  -0.00962   0.21570   0.02524   0.03591
   6        3S         -0.20807  -0.12502   0.09127  -0.14222  -0.03580
   7        3PX         0.13245  -0.01498  -0.03968  -0.16275   0.03394
   8        3PY        -0.05209   0.32404   0.04798  -0.06375  -0.09996
   9        3PZ         0.08164  -0.01400   0.33193   0.03877   0.05529
  10        4S         -0.21246  -0.13617   0.09754  -0.16752  -0.01565
  11        4PX         0.07378   0.01559  -0.03011  -0.12952   0.12378
  12        4PY        -0.03386   0.22490   0.02704  -0.05408  -0.07156
  13        4PZ         0.04659  -0.01678   0.23329   0.03360   0.04338
  14        5D 0       -0.00137  -0.00018  -0.00238  -0.00029   0.00166
  15        5D+1       -0.00578  -0.00102   0.00529   0.00377   0.01684
  16        5D-1        0.00122  -0.00149   0.00401   0.00108   0.00146
  17        5D+2        0.00215  -0.00771  -0.00002   0.00227   0.00673
  18        5D-2        0.00608   0.00162  -0.00028  -0.00217  -0.03593
  19 2   N  1S         -0.03138  -0.02134   0.01743  -0.07527   0.00026
  20        2S         -0.04969  -0.03420   0.02784  -0.11988   0.00020
  21        2PX         0.00558  -0.00256  -0.02597   0.20895   0.02646
  22        2PY        -0.01922   0.12692   0.01797   0.02161  -0.13619
  23        2PZ         0.02038  -0.00532   0.13254   0.02558   0.06093
  24        3S          0.14454   0.10167  -0.08212   0.34080   0.00035
  25        3PX         0.00987  -0.00915  -0.03567   0.28210   0.04046
  26        3PY        -0.03049   0.19567   0.02885   0.02620  -0.20506
  27        3PZ         0.03269  -0.00832   0.20529   0.03855   0.09144
  28        4S          0.13345   0.08848  -0.09108   0.58377  -0.08264
  29        4PX        -0.00108   0.00456  -0.02047   0.14349   0.06446
  30        4PY        -0.01077   0.10309   0.01591   0.00947  -0.16184
  31        4PZ         0.01194  -0.00230   0.10829   0.02431   0.07758
  32        5D 0       -0.00028   0.00079  -0.00156   0.01277  -0.00090
  33        5D+1       -0.00681   0.00136  -0.03371  -0.00520  -0.00992
  34        5D-1       -0.00143  -0.00016  -0.00654  -0.00180  -0.00186
  35        5D+2       -0.00263   0.01063   0.00448  -0.02327  -0.00715
  36        5D-2        0.00598  -0.03081  -0.00453  -0.00495   0.02032
  37 3   N  1S         -0.04623  -0.02815   0.02446   0.00265  -0.02735
  38        2S         -0.07279  -0.04498   0.03900   0.00417  -0.04368
  39        2PX        -0.15595  -0.04115   0.03112   0.06827  -0.04108
  40        2PY        -0.07645   0.10087   0.02226  -0.00510   0.15269
  41        2PZ         0.06616  -0.00221   0.09772   0.00449  -0.07525
  42        3S          0.20123   0.13117  -0.11424  -0.00760   0.12206
  43        3PX        -0.22500  -0.05476   0.04109   0.10109  -0.05755
  44        3PY        -0.11388   0.15652   0.03517  -0.00962   0.22280
  45        3PZ         0.10027  -0.00090   0.15202   0.00762  -0.10597
  46        4S          0.25914   0.17514  -0.13441  -0.05589   0.29929
  47        4PX        -0.07859  -0.03325   0.02829   0.05742  -0.02758
  48        4PY        -0.05354   0.08902   0.02596  -0.00130   0.20082
  49        4PZ         0.05402   0.00898   0.08677  -0.00153  -0.07827
  50        5D 0        0.01126   0.00229   0.00886  -0.00280  -0.00080
  51        5D+1       -0.00490  -0.00379   0.02683   0.00799  -0.00447
  52        5D-1       -0.01252   0.00624  -0.00118   0.00068   0.01227
  53        5D+2       -0.02004   0.00097   0.00119   0.00672   0.00055
  54        5D-2        0.00218   0.02582   0.00205  -0.00701   0.00347
  55 4   H  1S          0.15960  -0.00346  -0.00756  -0.02890  -0.08787
  56        2S          0.19416  -0.01539  -0.00508  -0.03784  -0.15233
  57        3S          0.03602  -0.00078  -0.00400  -0.01469  -0.04962
  58        4PX         0.00518  -0.00688   0.00400   0.00348  -0.01565
  59        4PY         0.01480   0.00529   0.00249  -0.00214   0.00031
  60        4PZ        -0.01354   0.00192   0.00771   0.00170   0.00518
  61 5   H  1S          0.01483   0.03329  -0.00355  -0.01351   0.11276
  62        2S          0.02001   0.04645  -0.00693  -0.02398   0.18012
  63        3S          0.01063   0.02564  -0.00398  -0.01128   0.15166
  64        4PX        -0.00039   0.00188   0.00016  -0.00055   0.00097
  65        4PY        -0.00280  -0.00158   0.00103   0.00133  -0.00226
  66        4PZ         0.00030  -0.00015   0.00147   0.00017  -0.00076
                          11        12        13        14        15
                           O         O         V         V         V
     Eigenvalues --    -0.32235  -0.22559  -0.03727   0.00761   0.03803
   1 1   N  1S         -0.00593  -0.00876   0.00484   0.00234  -0.00907
   2        2S         -0.00974  -0.01430   0.00731   0.00381  -0.01466
   3        2PX        -0.01874  -0.01513  -0.01399  -0.02722  -0.01027
   4        2PY        -0.00673  -0.05978   0.14878   0.15325  -0.03485
   5        2PZ        -0.02584  -0.01242  -0.15245   0.17279   0.02099
   6        3S          0.03301   0.04149  -0.00306  -0.00984   0.02648
   7        3PX        -0.02744  -0.01888  -0.03755  -0.04467  -0.04557
   8        3PY        -0.00808  -0.09188   0.22839   0.23743  -0.05286
   9        3PZ        -0.03815  -0.01965  -0.23620   0.26744   0.03135
  10        4S          0.01802   0.07073  -0.20650  -0.05669   0.15036
  11        4PX         0.00108  -0.03806   0.13815  -0.05845   0.31039
  12        4PY        -0.01098  -0.11391   0.34068   0.36886  -0.08182
  13        4PZ        -0.02919  -0.02345  -0.32851   0.41807   0.08252
  14        5D 0       -0.00368   0.00213  -0.00103   0.00047   0.01341
  15        5D+1       -0.04795   0.00670   0.02124  -0.00744   0.00187
  16        5D-1       -0.00619   0.00287   0.00210  -0.00213  -0.00522
  17        5D+2        0.00464  -0.01232   0.00816   0.00507  -0.02179
  18        5D-2       -0.01747   0.03294  -0.01475  -0.00278  -0.01196
  19 2   N  1S          0.00020   0.00245  -0.00234  -0.00096   0.01308
  20        2S          0.00037   0.00425  -0.00419  -0.00159   0.02178
  21        2PX         0.02505  -0.00964   0.01222   0.02001   0.03798
  22        2PY        -0.05861   0.13005  -0.14486  -0.12520   0.04090
  23        2PZ        -0.16092   0.02229   0.15386  -0.14615  -0.02439
  24        3S         -0.00267  -0.01898   0.01931   0.00617  -0.09250
  25        3PX         0.03586  -0.01423   0.01427   0.02782   0.05578
  26        3PY        -0.08755   0.19134  -0.20874  -0.17796   0.06199
  27        3PZ        -0.23995   0.03208   0.21991  -0.20675  -0.03716
  28        4S          0.00166   0.03062  -0.10017   0.00401  -0.28432
  29        4PX         0.03272  -0.04055   0.08011   0.05678   0.13974
  30        4PY        -0.08280   0.22777  -0.32768  -0.32635   0.12274
  31        4PZ        -0.23057   0.04140   0.36404  -0.38325  -0.06322
  32        5D 0        0.00073   0.00094  -0.00106   0.00014  -0.00115
  33        5D+1        0.01908  -0.00096   0.00550  -0.00961  -0.00041
  34        5D-1        0.00396  -0.00012   0.00110  -0.00214  -0.00106
  35        5D+2       -0.00379   0.00099   0.00414   0.00391   0.00192
  36        5D-2        0.00558  -0.00757  -0.00499  -0.00858   0.00160
  37 3   N  1S          0.02490   0.03143   0.02184   0.00540   0.03503
  38        2S          0.03999   0.05060   0.03465   0.00860   0.05533
  39        2PX         0.02258   0.03182   0.07744   0.03025  -0.00526
  40        2PY         0.07351  -0.11068  -0.05454  -0.11971   0.11717
  41        2PZ         0.20299  -0.02833   0.04009  -0.11774  -0.07755
  42        3S         -0.12097  -0.15649  -0.08642  -0.02180  -0.14982
  43        3PX         0.02979   0.03627   0.11100   0.04147  -0.05236
  44        3PY         0.10946  -0.16112  -0.07578  -0.16849   0.14907
  45        3PZ         0.29748  -0.04708   0.04788  -0.16312  -0.09800
  46        4S         -0.15983  -0.27610  -0.24827  -0.09796  -0.56388
  47        4PX         0.03777   0.05966   0.24487   0.08176   0.26324
  48        4PY         0.12806  -0.19718  -0.10115  -0.31065   0.38178
  49        4PZ         0.32677  -0.04317   0.09233  -0.32262  -0.24981
  50        5D 0        0.01259  -0.00966  -0.00353  -0.00683  -0.00020
  51        5D+1        0.01470  -0.00197  -0.01695   0.01654  -0.00533
  52        5D-1       -0.00400  -0.00300  -0.00636   0.00085   0.00134
  53        5D+2        0.00371  -0.00364   0.00070  -0.00639   0.00416
  54        5D-2        0.00370  -0.02312   0.01555   0.00969   0.00951
  55 4   H  1S          0.03020   0.00379   0.08855  -0.00109   0.04387
  56        2S          0.04224  -0.00205   0.19318  -0.00782  -0.05068
  57        3S          0.01829   0.02744   0.33499   0.08846   1.55682
  58        4PX         0.00570   0.00421  -0.00179   0.00339  -0.01897
  59        4PY         0.01093  -0.00894  -0.00445  -0.01728  -0.01605
  60        4PZ         0.01627  -0.00331   0.00203  -0.01570   0.01759
  61 5   H  1S          0.07078   0.20111   0.03442   0.03283  -0.03507
  62        2S          0.11036   0.37885   0.06729   0.05799  -0.07579
  63        3S          0.10522   0.45474   0.11671   0.20340  -0.21752
  64        4PX        -0.00104  -0.00436  -0.00292  -0.00153  -0.00076
  65        4PY         0.00251   0.00475   0.00730   0.00733  -0.00438
  66        4PZ         0.00460   0.00264   0.00475  -0.00204  -0.00083
                          16        17        18        19        20
                           V         V         V         V         V
     Eigenvalues --     0.22455   0.25852   0.36578   0.41951   0.45490
   1 1   N  1S         -0.06595   0.02692  -0.00070   0.00875   0.04790
   2        2S         -0.10712   0.04516   0.00110   0.01925   0.09055
   3        2PX        -0.07405   0.03652   0.03720   0.14950  -0.05912
   4        2PY         0.03204  -0.04851  -0.04506   0.04779   0.03208
   5        2PZ        -0.02871  -0.00010   0.05124  -0.02366  -0.02337
   6        3S          0.25649  -0.15861  -0.07432  -0.22242  -0.65491
   7        3PX        -0.12144   0.03368   0.09999   0.23720  -0.05353
   8        3PY         0.05001  -0.08836  -0.08342   0.09717   0.10931
   9        3PZ        -0.03896  -0.00638   0.08549  -0.07961  -0.06064
  10        4S          2.57517  -0.81904   0.25673   1.27453  -1.87545
  11        4PX        -0.42947   0.46187   0.03213   4.99617  -1.70053
  12        4PY         0.22224  -0.03950  -0.24949   0.58501  -0.43728
  13        4PZ        -0.17026   0.09385   0.28866   0.26545   0.06459
  14        5D 0        0.03108  -0.01064   0.00699   0.00719   0.00548
  15        5D+1       -0.00884  -0.00123   0.01984  -0.00541  -0.00951
  16        5D-1        0.00128   0.00024  -0.02119   0.00896  -0.00054
  17        5D+2       -0.05308   0.01535  -0.00939  -0.01306  -0.01181
  18        5D-2       -0.01393  -0.00841  -0.01617   0.00583   0.00837
  19 2   N  1S          0.04388  -0.00780   0.01239   0.04576   0.00296
  20        2S          0.07449  -0.01243   0.02186   0.07801   0.01604
  21        2PX         0.14537  -0.03829   0.03089   0.01944   0.06527
  22        2PY        -0.00284  -0.00499   0.00341  -0.00694   0.00534
  23        2PZ         0.01939  -0.00102  -0.00113  -0.00284   0.00984
  24        3S         -0.30013   0.02899  -0.09674  -0.25474  -0.32808
  25        3PX         0.21778  -0.03900   0.05790   0.03766   0.33243
  26        3PY        -0.00076  -0.03374  -0.03797  -0.01959   0.07609
  27        3PZ         0.02623   0.00088   0.04101  -0.02149   0.01630
  28        4S         -0.57550  -0.01941  -0.10610  -4.84747   2.82453
  29        4PX         0.58202  -0.14170   0.11169   2.67325  -2.14272
  30        4PY        -0.03289   0.09725   0.22497   0.64839  -0.45965
  31        4PZ         0.09062  -0.03378  -0.21053   0.00924  -0.03049
  32        5D 0       -0.00103  -0.00098  -0.00067   0.00240   0.01994
  33        5D+1        0.00363   0.00061  -0.01030   0.00778   0.00789
  34        5D-1        0.00152   0.00061  -0.00480   0.00228   0.00019
  35        5D+2        0.00486  -0.00571  -0.00457  -0.00030  -0.02592
  36        5D-2       -0.00505   0.00705   0.00983  -0.00824  -0.02841
  37 3   N  1S          0.04546  -0.01660   0.02426  -0.01633   0.01082
  38        2S          0.07534  -0.02771   0.04323  -0.02033   0.02430
  39        2PX        -0.20574   0.04884   0.03453  -0.05310  -0.08648
  40        2PY        -0.02544   0.02626   0.07373  -0.03896  -0.04037
  41        2PZ         0.00794   0.01642  -0.09274   0.00287   0.02727
  42        3S         -0.23701   0.10436  -0.17712  -0.15831  -0.20712
  43        3PX        -0.30903   0.04586   0.02077  -0.25828  -0.38932
  44        3PY        -0.01750   0.07159   0.13785  -0.08551  -0.10964
  45        3PZ         0.00666   0.03030  -0.20136  -0.00215   0.07236
  46        4S         -1.21683   0.38635  -0.47423   4.26194  -0.46076
  47        4PX        -1.12937   0.65289   0.61949   2.49161   0.36015
  48        4PY        -0.15943  -0.15080   0.74145  -0.44892   0.25122
  49        4PZ        -0.06189  -0.01526  -0.60908   0.64858  -0.16867
  50        5D 0       -0.00566   0.01602  -0.00169   0.00871   0.01418
  51        5D+1       -0.00659   0.00610  -0.00701  -0.01489  -0.00456
  52        5D-1        0.00267  -0.00256  -0.01366  -0.00532   0.00565
  53        5D+2        0.01663  -0.00192  -0.00962  -0.02687  -0.03119
  54        5D-2        0.01613   0.00223   0.00595   0.00923   0.00156
  55 4   H  1S          0.01567  -0.00889   0.12806  -0.02805  -0.01501
  56        2S          0.16237   0.07722   1.96490  -0.82056  -0.02408
  57        3S         -0.59722  -0.16889  -0.90683   0.35929   0.04950
  58        4PX        -0.02755   0.00025   0.03221  -0.00940   0.03372
  59        4PY         0.01998   0.02513  -0.00563  -0.02949   0.00396
  60        4PZ        -0.01409   0.01023   0.00080   0.02097  -0.00832
  61 5   H  1S         -0.03448  -0.11602   0.01743  -0.00034   0.00682
  62        2S         -0.36402  -1.22694   0.11172   0.10953   0.11618
  63        3S          0.46415   1.69068  -0.01594  -0.00692  -0.15067
  64        4PX        -0.00926   0.00711   0.02516   0.04392   0.03171
  65        4PY        -0.00338   0.00559   0.02766   0.00061   0.00035
  66        4PZ        -0.00357  -0.00098  -0.02607   0.02493  -0.00412
                          21        22        23        24        25
                           V         V         V         V         V
     Eigenvalues --     0.50114   0.52768   0.60287   0.64556   0.67520
   1 1   N  1S         -0.00615  -0.00113  -0.01581   0.03137   0.03997
   2        2S         -0.01175  -0.00193  -0.03092   0.06105   0.07735
   3        2PX        -0.02001   0.00723  -0.03596  -0.02027  -0.10161
   4        2PY        -0.04379  -0.10713  -0.00839  -0.07305   0.06442
   5        2PZ        -0.10725   0.02863   0.02627  -0.00785   0.01730
   6        3S          0.07562   0.01264   0.20648  -0.38534  -0.48943
   7        3PX        -0.02518   0.02533  -0.08980  -0.23366  -0.47593
   8        3PY        -0.16455  -0.45174  -0.03076  -0.25792   0.22847
   9        3PZ        -0.43601   0.13233   0.10552  -0.04276   0.04295
  10        4S         -0.32160  -0.14941  -0.74447   0.75681   0.47234
  11        4PX        -0.30579   0.28867   1.12825   0.03030   1.37213
  12        4PY         0.17225   0.68132   0.26583   0.38287  -0.52472
  13        4PZ         0.51584  -0.20560  -0.31393   0.14922  -0.15325
  14        5D 0        0.00815   0.00799   0.01151   0.00091  -0.00561
  15        5D+1       -0.00337   0.00157   0.06644   0.01482   0.01777
  16        5D-1       -0.00645   0.00862   0.02142  -0.00607   0.00319
  17        5D+2        0.00034   0.00736  -0.01470   0.00278   0.01318
  18        5D-2       -0.00317  -0.01814   0.00400   0.04056  -0.04943
  19 2   N  1S         -0.00700   0.00235  -0.01511   0.04513   0.04825
  20        2S         -0.01237   0.00442  -0.02874   0.08714   0.09458
  21        2PX         0.01744   0.03197   0.02178  -0.12583  -0.11857
  22        2PY        -0.03554  -0.15293   0.03011   0.09501  -0.12108
  23        2PZ        -0.12613   0.04968   0.13185   0.01795  -0.00273
  24        3S          0.04720  -0.03777   0.16831  -0.62877  -0.73461
  25        3PX         0.06478   0.11546   0.09476  -0.41022  -0.30746
  26        3PY        -0.12925  -0.54441   0.11674   0.32706  -0.41334
  27        3PZ        -0.45635   0.17167   0.45990   0.07217  -0.00787
  28        4S          0.36870  -0.20795  -0.76302   0.47944  -0.05070
  29        4PX        -0.34396  -0.09103   0.04095   0.38071   0.20610
  30        4PY         0.07113   0.62980  -0.16704  -0.66245   0.86914
  31        4PZ         0.50036  -0.18122  -0.61497  -0.17571   0.04857
  32        5D 0       -0.00020  -0.00014  -0.00254   0.00300   0.01202
  33        5D+1        0.03394  -0.01016  -0.02553  -0.00502  -0.00441
  34        5D-1        0.00754  -0.00183  -0.00086  -0.00344   0.00159
  35        5D+2       -0.00434  -0.01354   0.00340  -0.00456  -0.02593
  36        5D-2        0.01136   0.03700  -0.00518  -0.01008   0.00264
  37 3   N  1S         -0.00517   0.00478  -0.01387  -0.00953  -0.01046
  38        2S         -0.01001   0.00949  -0.02468  -0.01873  -0.01909
  39        2PX        -0.01442  -0.00531  -0.05224   0.05839   0.02796
  40        2PY        -0.02894  -0.08457  -0.00227  -0.12924   0.07487
  41        2PZ        -0.12864   0.03814  -0.16481   0.00022  -0.03892
  42        3S          0.06360  -0.07634   0.07462   0.20350   0.13709
  43        3PX        -0.01102   0.00084  -0.11679   0.15314   0.06694
  44        3PY        -0.12090  -0.28232  -0.02335  -0.46068   0.24719
  45        3PZ        -0.44489   0.11867  -0.58041  -0.04015  -0.13368
  46        4S         -0.08485   0.31635   1.33437  -0.83571   0.77591
  47        4PX        -0.14585   0.12413   0.53817  -0.39193  -0.06831
  48        4PY         0.09474   0.15869  -0.36547   0.90500  -0.39560
  49        4PZ         0.46514   0.00181   1.33960  -0.22908   0.42823
  50        5D 0       -0.01246   0.00019  -0.01592   0.01561  -0.00117
  51        5D+1       -0.02558   0.00910  -0.03658   0.00335  -0.01688
  52        5D-1       -0.00284   0.00450   0.00033   0.00058  -0.00150
  53        5D+2        0.01131  -0.00106   0.02266  -0.00953  -0.00510
  54        5D-2       -0.00180  -0.01939   0.01147  -0.03400   0.02683
  55 4   H  1S          0.00777  -0.02516   0.00203  -0.00878   0.01471
  56        2S          0.00096  -0.31993  -0.56555   0.34700  -0.11843
  57        3S         -0.16506   0.50711  -0.03105   0.29003  -0.33683
  58        4PX        -0.02021  -0.01447  -0.09988   0.03243  -0.04323
  59        4PY        -0.01332   0.01455  -0.01940   0.07384  -0.03206
  60        4PZ         0.00614  -0.02082   0.02739  -0.03123   0.00966
  61 5   H  1S          0.00264   0.01479  -0.00952   0.00957   0.01842
  62        2S         -0.03808   0.10725  -0.08987  -0.13840   0.03320
  63        3S         -0.04416  -0.34595   0.13366  -0.18155   0.08359
  64        4PX         0.00644   0.02689  -0.00028   0.01572  -0.06661
  65        4PY         0.00323  -0.00544  -0.00896   0.00332  -0.00436
  66        4PZ         0.02550   0.00489   0.08392  -0.01789   0.02351
                          26        27        28        29        30
                           V         V         V         V         V
     Eigenvalues --     0.68865   0.74271   0.77261   0.91866   1.02362
   1 1   N  1S         -0.00332  -0.01728  -0.04638   0.00070  -0.00005
   2        2S         -0.00643  -0.03427  -0.09064   0.00220  -0.00303
   3        2PX        -0.02643   0.00129  -0.12337   0.28060  -0.16409
   4        2PY        -0.07723   0.13349  -0.03111   0.02010   0.01688
   5        2PZ         0.16874   0.08517  -0.04559   0.00802  -0.02706
   6        3S          0.03815   0.26039   0.70327  -0.11417   0.07593
   7        3PX        -0.13927  -0.02451  -0.50428   0.23893  -0.45919
   8        3PY        -0.27033   0.46092  -0.11331   0.03408   0.08297
   9        3PZ         0.57053   0.28712  -0.16172  -0.02842  -0.10571
  10        4S         -0.48718  -0.13284  -1.70966   1.60721   0.67257
  11        4PX         2.00707  -0.59874   2.71582   2.79204  10.28571
  12        4PY         0.96613  -1.61348   0.24350   0.35872   0.67748
  13        4PZ        -1.47047  -0.72873   0.78227   0.22024   0.76677
  14        5D 0        0.00534  -0.01073   0.01154   0.00250  -0.00749
  15        5D+1       -0.01783  -0.00197  -0.00190   0.05349   0.03293
  16        5D-1        0.01943  -0.01997  -0.02198   0.00193   0.04161
  17        5D+2       -0.01353   0.00438  -0.02235   0.02302   0.01410
  18        5D-2       -0.00902   0.01608  -0.02039  -0.09681  -0.04669
  19 2   N  1S          0.00382  -0.01234  -0.00693   0.03997  -0.03841
  20        2S          0.00719  -0.02507  -0.01595   0.07293  -0.07748
  21        2PX        -0.00741   0.04088  -0.01620   0.22690  -0.03303
  22        2PY         0.04820  -0.04150   0.00862   0.06492   0.01782
  23        2PZ        -0.12836  -0.04768   0.00766  -0.00404  -0.01006
  24        3S         -0.07288   0.20798   0.07241  -0.38972   0.62920
  25        3PX         0.01649   0.07435  -0.10464   0.63688   0.21167
  26        3PY         0.17761  -0.18052   0.00419   0.14723   0.06179
  27        3PZ        -0.45512  -0.16687   0.04663   0.00844  -0.00137
  28        4S         -1.36601   0.43429  -1.46043  -2.66346  -9.13265
  29        4PX         0.44649  -0.32094   0.41474   0.56931   3.21808
  30        4PY        -0.36064   0.72558   0.14844   0.23153   1.06914
  31        4PZ         1.17771   0.48780  -0.32442  -0.11375  -0.21205
  32        5D 0        0.00228  -0.01667  -0.01643  -0.02854   0.02883
  33        5D+1        0.00369   0.00127  -0.00669  -0.02273  -0.03480
  34        5D-1        0.00548  -0.00433  -0.00857  -0.00533  -0.00561
  35        5D+2       -0.00330   0.01370   0.02264   0.03013  -0.08087
  36        5D-2       -0.00173   0.01146   0.01950   0.05973   0.03360
  37 3   N  1S         -0.00567  -0.02152  -0.05382  -0.06148   0.05753
  38        2S         -0.00908  -0.04302  -0.10586  -0.11616   0.11557
  39        2PX        -0.01931  -0.02747  -0.17879   0.18802   0.02632
  40        2PY         0.03679  -0.14597   0.00824  -0.01148  -0.04356
  41        2PZ        -0.02501  -0.02088   0.06358   0.03948   0.01942
  42        3S         -0.03504   0.39261   0.82081   0.76811  -1.05463
  43        3PX        -0.08311  -0.01531  -0.37313   0.51289   0.24384
  44        3PY         0.11327  -0.50518   0.09946   0.02240  -0.20372
  45        3PZ        -0.06058  -0.15127   0.17476   0.05246   0.20156
  46        4S          1.87798  -1.52673   0.77384   0.81084   9.22817
  47        4PX         0.91740  -0.13476   1.99538   0.01420   3.33728
  48        4PY        -0.73297   1.73079   0.19730  -0.18506  -0.38457
  49        4PZ         0.90070   0.00033  -0.71715   0.05266   0.67392
  50        5D 0       -0.00413   0.00178  -0.04692   0.02723  -0.03348
  51        5D+1       -0.01184   0.01786   0.03728  -0.03424  -0.06168
  52        5D-1        0.00107   0.00175   0.01430   0.01837   0.01812
  53        5D+2       -0.00357   0.03022   0.07396  -0.03706   0.03592
  54        5D-2        0.01965  -0.03502  -0.00055   0.06260   0.09458
  55 4   H  1S          0.03436  -0.02917  -0.00437   0.04112   0.09413
  56        2S         -0.52494   0.59175   0.53068  -0.09368  -0.85420
  57        3S          0.13879   0.44984   0.80680   0.10394  -0.05913
  58        4PX        -0.15011   0.08503   0.00083  -0.06469  -0.31741
  59        4PY        -0.03177   0.13534   0.11182   0.05311  -0.09387
  60        4PZ        -0.00361  -0.04234  -0.16170  -0.08377   0.04506
  61 5   H  1S         -0.00208   0.01114   0.01839   0.03238   0.00901
  62        2S          0.10731  -0.36657   0.21060   0.04782  -0.20566
  63        3S          0.02614   0.03163   0.06031  -0.03266   0.11420
  64        4PX         0.01891  -0.02862  -0.00285  -0.10566   0.18490
  65        4PY         0.00319  -0.00008   0.12848   0.05030  -0.05940
  66        4PZ         0.06634  -0.03094  -0.03215   0.03102   0.10353
                          31        32        33        34        35
                           V         V         V         V         V
     Eigenvalues --     1.11831   1.22000   1.35634   1.39358   1.44980
   1 1   N  1S          0.07946  -0.01052  -0.00615  -0.00254  -0.00148
   2        2S          0.15296  -0.02047  -0.01289  -0.00574  -0.00248
   3        2PX        -0.10845  -0.00422  -0.06210  -0.03260  -0.03389
   4        2PY        -0.05204   0.00136  -0.03099  -0.01269  -0.00793
   5        2PZ         0.00637  -0.00036  -0.00641   0.00741  -0.00415
   6        3S         -1.34286   0.20271   0.07502   0.03482   0.00311
   7        3PX         0.00776  -0.02352  -0.23125  -0.17569  -0.13191
   8        3PY        -0.04710  -0.01828  -0.06677  -0.05196  -0.00386
   9        3PZ         0.00290  -0.02800  -0.01269   0.02054   0.05992
  10        4S          7.22696  -1.29787   0.71606   0.40508   0.90114
  11        4PX         1.21727   0.81149   3.51945   4.38741   2.56554
  12        4PY         0.61179   0.15148   0.54787   0.75120   0.26006
  13        4PZ        -0.09051   0.25543   0.21756   0.01465  -0.17287
  14        5D 0       -0.10938   0.13632   0.00277   0.01186  -0.02684
  15        5D+1        0.02577   0.04626   0.00762  -0.00906  -0.41152
  16        5D-1       -0.00892   0.00948  -0.05862   0.08568  -0.06790
  17        5D+2        0.20970   0.00727   0.01221  -0.00044   0.06218
  18        5D-2        0.04842   0.02222   0.00960   0.02673  -0.18144
  19 2   N  1S         -0.07287   0.00674  -0.01201  -0.00583  -0.00484
  20        2S         -0.13945   0.01243  -0.02515  -0.01308  -0.01086
  21        2PX        -0.13490   0.01297   0.00067   0.02195   0.00657
  22        2PY        -0.02752  -0.00309   0.01205   0.00595   0.04211
  23        2PZ        -0.00143  -0.01524  -0.00614  -0.00078   0.06824
  24        3S          1.17622  -0.11707   0.22991   0.14048   0.11692
  25        3PX         0.04371  -0.00785   0.05752   0.11930   0.05879
  26        3PY         0.01352  -0.00796   0.03223   0.02793   0.07389
  27        3PZ        -0.00073  -0.02088  -0.00548  -0.00376   0.11364
  28        4S         -5.22334  -0.01239  -3.37546  -3.89203  -2.50768
  29        4PX         2.47694  -0.07923   1.27246   1.41017   0.92430
  30        4PY         0.37262  -0.01634   0.23916   0.27336   0.24268
  31        4PZ         0.04673  -0.07852  -0.03285   0.03270   0.07877
  32        5D 0        0.08894   0.01560   0.01036   0.01119  -0.00105
  33        5D+1       -0.00366  -0.03835  -0.01283  -0.00493   0.26032
  34        5D-1       -0.00152  -0.00976  -0.02435   0.03066   0.05925
  35        5D+2       -0.13289   0.03117  -0.01731  -0.00596  -0.07518
  36        5D-2       -0.06046   0.00107   0.00099  -0.01440   0.12884
  37 3   N  1S         -0.02522   0.01485   0.00238   0.00399   0.00731
  38        2S         -0.04899   0.03098   0.00304   0.00955   0.01626
  39        2PX         0.00545  -0.01732  -0.04479  -0.00239  -0.00863
  40        2PY         0.00366   0.01093  -0.00243  -0.00035  -0.02415
  41        2PZ         0.01089  -0.00796   0.00312  -0.03520  -0.08188
  42        3S          0.54017  -0.32624  -0.02516  -0.18418  -0.18698
  43        3PX        -0.10215   0.02934  -0.06794   0.03089   0.11930
  44        3PY         0.04130  -0.06087  -0.03853   0.04321  -0.10931
  45        3PZ        -0.06260   0.03682   0.07604  -0.05631  -0.10358
  46        4S         -2.29580   1.67301   2.38582   3.63752   2.00172
  47        4PX        -1.01720   0.60097   1.12439   1.44822   0.24952
  48        4PY         0.00041  -0.29077  -0.07681  -0.63802   0.02848
  49        4PZ        -0.18192  -0.11652   0.01361   0.65972   0.37777
  50        5D 0        0.04268   0.24513   0.01880  -0.01950   0.13917
  51        5D+1       -0.02537  -0.09023  -0.00884  -0.00731   0.36245
  52        5D-1        0.00284  -0.02295  -0.09882   0.04153  -0.05865
  53        5D+2       -0.01178   0.16773  -0.02209  -0.02721   0.01514
  54        5D-2        0.03947   0.00035  -0.04287  -0.07776   0.15829
  55 4   H  1S         -0.01439   0.03663   0.11102  -0.04057  -0.07734
  56        2S          0.37371  -0.29680  -0.15793  -0.46167  -0.16181
  57        3S         -0.03372   0.01749   0.12152   0.01765  -0.04597
  58        4PX        -0.06569  -0.09329   0.32858   0.02513   0.29443
  59        4PY         0.13784   0.50543  -0.19027  -0.01440  -0.14886
  60        4PZ        -0.08269   0.59540   0.12652   0.14852   0.13897
  61 5   H  1S          0.02276   0.06510  -0.00321  -0.01036   0.03262
  62        2S          0.16177   0.06402  -0.03129   0.01069  -0.08842
  63        3S         -0.14407  -0.11003   0.06952   0.11032  -0.09357
  64        4PX        -0.16277  -0.21564  -0.62579  -0.20218  -0.05610
  65        4PY         0.14102   0.22150  -0.54585  -0.15779   0.35385
  66        4PZ        -0.01143   0.09022   0.29372  -0.93106   0.00788
                          36        37        38        39        40
                           V         V         V         V         V
     Eigenvalues --     1.49819   1.64643   1.65824   1.70422   1.82274
   1 1   N  1S         -0.00985  -0.00130  -0.00030   0.00030  -0.00077
   2        2S         -0.01995  -0.00198  -0.00080  -0.00047  -0.00056
   3        2PX         0.02054  -0.04019   0.00090   0.06053  -0.01119
   4        2PY        -0.01315  -0.02783  -0.01465   0.01927   0.03306
   5        2PZ        -0.00906   0.03113  -0.01322  -0.01221  -0.03088
   6        3S          0.29095   0.01499   0.00404   0.05190   0.02798
   7        3PX         0.21484  -0.02942  -0.03412   0.02152  -0.02089
   8        3PY         0.06635  -0.04244  -0.02937   0.01320   0.02441
   9        3PZ        -0.01482   0.04680  -0.02032  -0.01501  -0.00506
  10        4S         -3.76853   0.24969   0.22241  -1.08124  -0.06364
  11        4PX        -4.17505   0.62385   0.98854   1.51948   1.45552
  12        4PY        -0.90476   0.31632   0.12666  -0.10720  -0.09456
  13        4PZ        -0.04457  -0.25742   0.07586   0.41631  -0.18268
  14        5D 0       -0.01873  -0.06463  -0.60939  -0.04221   0.07199
  15        5D+1        0.00359   0.20748   0.03096  -0.23845   0.22565
  16        5D-1        0.04363  -0.59054   0.11344  -0.37371  -0.01387
  17        5D+2       -0.05154  -0.07869  -0.36919  -0.05366  -0.01210
  18        5D-2       -0.32811  -0.10133   0.00216   0.25370   0.07427
  19 2   N  1S          0.00977  -0.00372  -0.00040   0.00690   0.00152
  20        2S          0.01985  -0.00871  -0.00111   0.01455   0.00225
  21        2PX        -0.05443  -0.00620   0.01363   0.02966   0.01874
  22        2PY         0.04343   0.01340  -0.01822  -0.03508   0.00417
  23        2PZ         0.00310  -0.01781  -0.00758   0.05383  -0.04620
  24        3S         -0.26720   0.07114   0.02167  -0.11614  -0.00996
  25        3PX        -0.26082  -0.03167   0.04188   0.09598   0.03739
  26        3PY         0.03684   0.01558  -0.02797  -0.04702  -0.00421
  27        3PZ         0.00144  -0.02885  -0.01197   0.08541  -0.06657
  28        4S          5.19829  -0.66287  -0.91247  -0.72197  -1.08791
  29        4PX        -2.01627   0.28029   0.32916   0.15246   0.35811
  30        4PY        -0.39116  -0.01990   0.09501   0.18217   0.18167
  31        4PZ        -0.03378   0.10743  -0.01256  -0.17711   0.14105
  32        5D 0       -0.05829  -0.05967  -0.46073  -0.02707   0.08909
  33        5D+1       -0.00577   0.03479  -0.05516   0.29622  -0.21753
  34        5D-1        0.01690  -0.43168   0.06254  -0.27874  -0.19112
  35        5D+2       -0.07340  -0.07180  -0.20707   0.08279   0.03577
  36        5D-2        0.18354   0.02615  -0.20079  -0.17073   0.06363
  37 3   N  1S          0.03029   0.02082   0.00063  -0.00736   0.01380
  38        2S          0.06166   0.04384   0.00153  -0.01205   0.03097
  39        2PX        -0.03555  -0.00049   0.00183   0.03524  -0.03921
  40        2PY        -0.05374   0.01843   0.00146  -0.01420  -0.05449
  41        2PZ         0.00008  -0.01897  -0.00074   0.01682   0.08778
  42        3S         -0.54097  -0.34332  -0.04437  -0.03720  -0.38816
  43        3PX        -0.11585   0.11528   0.03870   0.02310   0.08980
  44        3PY        -0.14641   0.14559  -0.05591  -0.04479  -0.18217
  45        3PZ        -0.03042  -0.14075   0.01633   0.07426   0.02339
  46        4S         -1.14632   0.82084   0.81238   1.60717   1.74984
  47        4PX        -0.06865  -0.17381   0.20452   1.29553   0.24929
  48        4PY         0.53307  -0.45202   0.00153   0.13593   0.57623
  49        4PZ        -0.00471   0.46530   0.00065  -0.16734   0.33560
  50        5D 0       -0.01417  -0.06710  -0.08148   0.03281  -0.06485
  51        5D+1       -0.05364  -0.10961   0.05196   0.10930   0.04408
  52        5D-1        0.08732  -0.17362   0.01072   0.10947   0.16165
  53        5D+2        0.02039   0.00110  -0.06440   0.00533   0.03526
  54        5D-2        0.31076   0.12191  -0.02067  -0.14117  -0.16061
  55 4   H  1S          0.09929   0.17259  -0.02966  -0.33886  -0.55642
  56        2S         -0.16654  -0.70062  -0.02201   0.68253   0.61172
  57        3S          0.12056   0.12352  -0.00142  -0.20720  -0.27639
  58        4PX        -0.39935   0.34972   0.01080  -0.60326   0.12654
  59        4PY         0.07509   0.17358   0.06517   0.06063  -0.38956
  60        4PZ        -0.32494  -0.09555   0.18293  -0.06983  -0.03204
  61 5   H  1S          0.00104   0.01007  -0.01967  -0.01592  -0.44951
  62        2S         -0.03848  -0.01377   0.03377   0.02980   0.35375
  63        3S         -0.12424  -0.01913  -0.08844   0.08089  -0.40424
  64        4PX        -0.50107   0.10505  -0.08716  -0.17575  -0.35378
  65        4PY         0.05937   0.10887   0.13111  -0.17308   0.58471
  66        4PZ        -0.07772  -0.14810   0.04985   0.02192   0.07674
                          41        42        43        44        45
                           V         V         V         V         V
     Eigenvalues --     1.85156   2.07522   2.10220   2.17091   2.23996
   1 1   N  1S         -0.01041  -0.00071   0.00380  -0.00160   0.00710
   2        2S         -0.02155  -0.00224   0.00875  -0.00284   0.02001
   3        2PX        -0.01067   0.00029   0.00002   0.01704   0.03074
   4        2PY        -0.02869  -0.04682   0.01509  -0.07000   0.14531
   5        2PZ         0.02556  -0.02548   0.00379  -0.11101  -0.06718
   6        3S          0.23648   0.01351  -0.05059   0.07579  -0.17524
   7        3PX        -0.10183  -0.01420   0.03730  -0.00506   0.04610
   8        3PY        -0.01964  -0.01467  -0.01768  -0.01837   0.00258
   9        3PZ         0.01736  -0.02100   0.01913  -0.01330   0.00314
  10        4S         -0.97695   0.07656  -0.02100  -0.54184  -0.45638
  11        4PX         3.25970  -0.46552   0.78641   1.06932   1.32164
  12        4PY        -0.00703  -0.08519   0.20969  -0.34801   0.50282
  13        4PZ         0.10299  -0.02912   0.11594  -0.35674   0.01646
  14        5D 0        0.05887  -0.40421  -0.14684   0.04235  -0.16188
  15        5D+1       -0.10528   0.00286   0.05927   0.06066  -0.09229
  16        5D-1        0.05730   0.14408  -0.51986  -0.01113   0.21222
  17        5D+2       -0.11404  -0.24093  -0.10086  -0.06351   0.12252
  18        5D-2        0.31731  -0.08038  -0.03846   0.10135   0.09416
  19 2   N  1S          0.00121  -0.00177   0.00073  -0.00005   0.00898
  20        2S          0.00157  -0.00371   0.00111  -0.00088   0.02239
  21        2PX         0.03628  -0.00651   0.01049   0.01283  -0.00085
  22        2PY        -0.04957  -0.00840   0.01626  -0.01371   0.02017
  23        2PZ         0.02008  -0.00285  -0.00141  -0.02885  -0.00142
  24        3S         -0.00803   0.02613  -0.00420   0.00334  -0.19222
  25        3PX         0.07131  -0.02915   0.01982   0.00306   0.18389
  26        3PY        -0.07672  -0.01761   0.01293  -0.03938   0.06204
  27        3PZ         0.02775  -0.00829   0.00734  -0.03858  -0.00063
  28        4S         -2.19665   0.34317  -0.64827  -0.57911  -0.82950
  29        4PX         0.68899  -0.11603   0.24177   0.13896   0.21772
  30        4PY         0.41513   0.00658  -0.01005   0.27532  -0.17437
  31        4PZ        -0.04627   0.01810  -0.02818   0.23883   0.04426
  32        5D 0        0.12099   0.64761   0.20452  -0.00286  -0.02791
  33        5D+1        0.07487  -0.02948  -0.11312  -0.42829  -0.13366
  34        5D-1        0.22811  -0.23973   0.70875  -0.06492  -0.21342
  35        5D+2        0.17587   0.38505   0.08348   0.14191  -0.03224
  36        5D-2       -0.25240   0.02920   0.11569  -0.30917   0.47759
  37 3   N  1S          0.03427  -0.00717   0.00581   0.00964   0.02392
  38        2S          0.06960  -0.01720   0.01847   0.02508   0.05633
  39        2PX         0.06710  -0.00334  -0.01779  -0.01604   0.02799
  40        2PY         0.09206  -0.01570  -0.05640   0.02782   0.05876
  41        2PZ        -0.05911  -0.03203   0.05748   0.02596  -0.01724
  42        3S         -0.64278   0.16631  -0.22297  -0.30200  -0.53415
  43        3PX         0.29722  -0.05588   0.10983   0.15408   0.03374
  44        3PY         0.03202  -0.08787   0.17451   0.06176   0.22018
[...]
                     4                      5                      6
                     A                      A                      A
 Frequencies --   564.8545               634.3028              1168.8701
 Red. masses --     4.9299                 3.4105                 1.6973
 Frc consts  --     0.9267                 0.8085                 1.3663
 IR Inten    --    11.0504                17.0473               158.8605
  Atom  AN      X      Y      Z        X      Y      Z        X      Y      Z
     1   7     0.03  -0.20   0.40    -0.06   0.31   0.19     0.05  -0.05   0.07
     2   7    -0.02   0.11  -0.22     0.03  -0.15  -0.10     0.06   0.01  -0.01
     3   7     0.06   0.07  -0.18    -0.00  -0.10  -0.05    -0.17   0.06  -0.08
     4   1    -0.52   0.32  -0.33     0.07  -0.52  -0.46     0.85  -0.36   0.29
     5   1    -0.32   0.08   0.33     0.50  -0.27  -0.08    -0.00   0.07  -0.03
                     7                      8                      9
                     A                      A                      A
 Frequencies --  1292.5982              2283.6143              3520.4986
 Red. masses --     3.0762                12.1904                 1.0762
 Frc consts  --     3.0282                37.4553                 7.8587
 IR Inten    --     2.5267               430.0839                59.1242
  Atom  AN      X      Y      Z        X      Y      Z        X      Y      Z
     1   7     0.09   0.03  -0.02     0.72   0.12   0.00    -0.00   0.00  -0.00
     2   7     0.26   0.03   0.01    -0.53  -0.11  -0.00    -0.00  -0.00  -0.00
     3   7    -0.28  -0.07   0.02    -0.17  -0.02   0.00     0.04   0.05  -0.04
     4   1    -0.88   0.11  -0.20    -0.36   0.03  -0.08    -0.46  -0.66   0.59
     5   1    -0.06   0.14   0.03     0.02  -0.04  -0.02     0.00  -0.01  -0.00

 -------------------
 - Thermochemistry -
 -------------------
 Temperature   298.150 Kelvin.  Pressure   1.00000 Atm.
 Atom     1 has atomic number  7 and mass  14.00307
 Atom     2 has atomic number  7 and mass  14.00307
 Atom     3 has atomic number  7 and mass  14.00307
 Atom     4 has atomic number  1 and mass   1.00783
 Atom     5 has atomic number  1 and mass   1.00783
 Molecular mass:    44.02487 amu.
 Principal axes and moments of inertia in atomic units:
                           1         2         3
     Eigenvalues --    12.84356 162.84890 172.34870
           X            0.99890  -0.03961  -0.02491
           Y            0.03920   0.99909  -0.01699
           Z            0.02556   0.01599   0.99955
 This molecule is an asymmetric top.
 Rotational symmetry number  1.
 Rotational temperatures (Kelvin)      6.74376     0.53187     0.50255
 Rotational constants (GHZ):         140.51722    11.08231    10.47145
    1 imaginary frequencies ignored.
 Zero-point vibrational energy      60136.8 (Joules/Mol)
                                   14.37303 (Kcal/Mol)
 Warning -- explicit consideration of   3 degrees of freedom as
           vibrations may cause significant error
 Vibrational temperatures:    319.99   527.94   812.70   912.62  1681.74
          (Kelvin)           1859.76  3285.61  5065.21
 
 Zero-point correction=                           0.022905 (Hartree/Particle)
 Thermal correction to Energy=                    0.026960
 Thermal correction to Enthalpy=                  0.027904
 Thermal correction to Gibbs Free Energy=        -0.002116
 Sum of electronic and zero-point Energies=           -165.200499
 Sum of electronic and thermal Energies=              -165.196444
 Sum of electronic and thermal Enthalpies=            -165.195500
 Sum of electronic and thermal Free Energies=         -165.225520
 
                     E (Thermal)             CV                S
                      KCal/Mol        Cal/Mol-Kelvin    Cal/Mol-Kelvin
 Total                   16.918             11.758             63.182
 Electronic               0.000              0.000              1.377
 Translational            0.889              2.981             37.273
 Rotational               0.889              2.981             20.516
 Vibrational             15.140              5.796              4.016
 Vibration     1          0.648              1.807              1.939
 Vibration     2          0.740              1.540              1.093
 Vibration     3          0.921              1.107              0.514
                       Q            Log10(Q)             Ln(Q)
 Total Bot       0.940185D+01          0.973213          2.240907
 Total V=0       0.322631D+12         11.508707         26.499776
 Vib (Bot)       0.602415D-10        -10.220104        -23.532660
 Vib (Bot)    1  0.888472D+00         -0.051356         -0.118252
 Vib (Bot)    2  0.497195D+00         -0.303473         -0.698773
 Vib (Bot)    3  0.273853D+00         -0.562483         -1.295166
 Vib (V=0)       0.206723D+01          0.315389          0.726209
 Vib (V=0)    1  0.151950D+01          0.181701          0.418382
 Vib (V=0)    2  0.120513D+01          0.081033          0.186584
 Vib (V=0)    3  0.107008D+01          0.029418          0.067737
 Electronic      0.200000D+01          0.301030          0.693147
 Translational   0.114816D+08          7.060002         16.256256
 Rotational      0.679650D+04          3.832286          8.824163
 
                                                        RC, from TS reverse 4
                                                             IR Spectrum
 
      3                                           2                                   1   1                                          
      5                                           2                                   2   1                   6 5      3    2        
      2                                           8                                   9   6                   3 6      6    2        
      0                                           4                                   3   9                   4 5      7    2        
 
      X                                           X                                   X   X                   X X      X    X        
      X                                           X                                       X                            X             
      X                                           X                                       X                            X             
                                                  X                                       X                                          
                                                  X                                       X                                          
                                                  X                                       X                                          
                                                  X                                       X                                          
                                                  X                                                                                  
                                                  X                                                                                  
                                                  X                                                                                  
                                                  X                                                                                  
                                                  X                                                                                  
                                                  X                                                                                  
                                                  X                                                                                  
                                                  X                                                                                  
                                                  X                                                                                  
                                                  X                                                                                  
                                                  X                                                                                  
                                                  X                                                                                  
                                                  X                                                                                  
 
 ***** Axes restored to original set *****
 -------------------------------------------------------------------
 Center     Atomic                   Forces (Hartrees/Bohr)
 Number     Number              X              Y              Z
 -------------------------------------------------------------------
      1        7           0.001996057    0.002286623    0.000539450
      2        7          -0.001198901   -0.001247662   -0.000601188
      3        7          -0.002391381   -0.003798560    0.000864352
      4        1          -0.000346871   -0.000078695    0.000223771
      5        1           0.001941096    0.002838294   -0.001026383
 -------------------------------------------------------------------
 Cartesian Forces:  Max     0.003798560 RMS     0.001766504
 Z-matrix is all fixed cartesians, so copy forces.
 Force constants in Cartesian coordinates: 
                1             2             3             4             5 
      1  0.171975D+00
      2 -0.930466D-02  0.122298D+00
      3 -0.217379D+00  0.189327D-01  0.172716D+01
      4 -0.689354D-01  0.786102D-02  0.106583D+00  0.497737D-01
      5  0.110879D-01 -0.635169D-01 -0.389755D-01 -0.586760D-02  0.348370D-01
      6  0.132756D+00 -0.211601D-01 -0.113406D+01 -0.149435D+00  0.290482D-01
      7 -0.100987D+00  0.124980D-01  0.767647D-01  0.189743D-01 -0.110145D-01
      8  0.658372D-02 -0.340553D-01  0.250414D-01 -0.569220D-02  0.151053D-01
      9  0.105792D+00 -0.700544D-02 -0.533033D+00  0.426339D-01  0.124493D-01
     10  0.499968D-02  0.328900D-03  0.350200D-01 -0.171406D-02 -0.233058D-04
     11  0.319404D-02 -0.126615D-01  0.228725D-03 -0.625632D-03  0.664435D-02
     12 -0.276267D-01  0.230462D-03 -0.619043D-01  0.193913D-02  0.488126D-03
     13 -0.705136D-02 -0.113833D-01 -0.988777D-03  0.190150D-02  0.581754D-02
     14 -0.115610D-01 -0.120643D-01 -0.522734D-02  0.432441D-02  0.693029D-02
     15  0.645715D-02  0.900231D-02  0.184155D-02 -0.172057D-02 -0.301006D-02
                6             7             8             9            10 
      6  0.119935D+01
      7  0.132744D-02  0.342109D+00
      8 -0.238098D-01 -0.365967D-02  0.942601D-02
      9 -0.717482D-01  0.985434D-01  0.205539D-02  0.781912D+00
     10  0.461212D-02 -0.267046D+00 -0.796154D-02 -0.234641D+00  0.262839D+00
     11 -0.828291D-03 -0.589599D-02 -0.872630D-03  0.591228D-02  0.427103D-02
     12  0.107557D-01 -0.171060D+00  0.259851D-02 -0.176462D+00  0.196154D+00
     13  0.107396D-01  0.695043D-02  0.107297D-01 -0.123281D-01  0.921521D-03
     14  0.167500D-01  0.807216D-02  0.103966D-01 -0.134116D-01  0.338492D-02
     15 -0.428784D-02 -0.557506D-02 -0.588553D-02 -0.668661D-03 -0.114511D-02
               11            12            13            14            15 
     11  0.553290D-02
     12 -0.271684D-02  0.226326D+00
     13 -0.943448D-03  0.593744D-03 -0.272209D-02
     14  0.135690D-02 -0.600254D-03 -0.422053D-02 -0.661951D-02
     15 -0.259587D-02  0.128453D-02  0.198359D-02  0.248915D-02  0.183042D-02
 Leave Link  716 at Tue Apr 29 14:51:28 2014, MaxMem=   65536000 cpu:       0.2
 (Enter /apps/gaussian/g09/l103.exe)

 GradGradGradGradGradGradGradGradGradGradGradGradGradGradGradGradGradGrad
 Berny optimization.
 Search for a local minimum.
 Step number   1 out of a maximum of    2
 All quantities printed in internal units (Hartrees-Bohrs-Radians)
 Second derivative matrix not updated -- analytic derivatives used.
 The second derivative matrix:
                          X1        Y1        Z1        X2        Y2
           X1           0.17197
           Y1          -0.00930   0.12230
           Z1          -0.21738   0.01893   1.72716
           X2          -0.06894   0.00786   0.10658   0.04977
           Y2           0.01109  -0.06352  -0.03898  -0.00587   0.03484
           Z2           0.13276  -0.02116  -1.13406  -0.14944   0.02905
           X3          -0.10099   0.01250   0.07676   0.01897  -0.01101
           Y3           0.00658  -0.03406   0.02504  -0.00569   0.01511
           Z3           0.10579  -0.00701  -0.53303   0.04263   0.01245
           X4           0.00500   0.00033   0.03502  -0.00171  -0.00002
           Y4           0.00319  -0.01266   0.00023  -0.00063   0.00664
           Z4          -0.02763   0.00023  -0.06190   0.00194   0.00049
           X5          -0.00705  -0.01138  -0.00099   0.00190   0.00582
           Y5          -0.01156  -0.01206  -0.00523   0.00432   0.00693
           Z5           0.00646   0.00900   0.00184  -0.00172  -0.00301
                          Z2        X3        Y3        Z3        X4
           Z2           1.19935
           X3           0.00133   0.34211
           Y3          -0.02381  -0.00366   0.00943
           Z3          -0.07175   0.09854   0.00206   0.78191
           X4           0.00461  -0.26705  -0.00796  -0.23464   0.26284
           Y4          -0.00083  -0.00590  -0.00087   0.00591   0.00427
           Z4           0.01076  -0.17106   0.00260  -0.17646   0.19615
           X5           0.01074   0.00695   0.01073  -0.01233   0.00092
           Y5           0.01675   0.00807   0.01040  -0.01341   0.00338
           Z5          -0.00429  -0.00558  -0.00589  -0.00067  -0.00115
                          Y4        Z4        X5        Y5        Z5
           Y4           0.00553
           Z4          -0.00272   0.22633
           X5          -0.00094   0.00059  -0.00272
           Y5           0.00136  -0.00060  -0.00422  -0.00662
           Z5          -0.00260   0.00128   0.00198   0.00249   0.00183
     Eigenvalues ---   -0.02321   0.00507   0.00870   0.05721   0.16272
     Eigenvalues ---    0.21906   0.58407   1.05425   2.74527
 Eigenvalue     1 is  -2.32D-02 should be greater than     0.000000 Eigenvector:
                          Y5        X5        Y3        Z5        X4
   1                   -0.73591  -0.47222   0.33317   0.23982   0.17341
                          X3        Z4        X2        X1        Y1
   1                    0.10357  -0.10101   0.06794  -0.05857  -0.05778
 Angle between quadratic step and forces=  36.89 degrees.
 Linear search not attempted -- first point.
 TrRot= -0.007420 -0.018100  0.003276 -1.385164 -0.008185  1.382665
 Variable       Old X    -DE/DX   Delta X   Delta X   Delta X     New X
                                 (Linear)    (Quad)   (Total)
    X1       -0.20048   0.00200   0.00000   0.02693   0.01901  -0.18147
    Y1       -0.11578   0.00229   0.00000   0.02614   0.00996  -0.10581
    Z1        0.18057   0.00054   0.00000   0.00490   0.00862   0.18919
    X2       -0.44653  -0.00120   0.00000  -0.01715  -0.02815  -0.47468
    Y2       -0.04551  -0.00125   0.00000   0.00198   0.00351  -0.04200
    Z2        2.30333  -0.00060   0.00000  -0.00624  -0.00340   2.29993
    X3        0.53940  -0.00239   0.00000  -0.02310  -0.02780   0.51160
    Y3       -0.02763  -0.00380   0.00000  -0.11357  -0.14932  -0.17695
    Z3       -2.03504   0.00086   0.00000   0.00013   0.00540  -2.02964
    X4       -0.93510  -0.00035   0.00000  -0.04104  -0.04351  -0.97861
    Y4       -0.03717  -0.00008   0.00000   0.05086   0.00903  -0.02813
    Z4       -3.27261   0.00022   0.00000   0.02133   0.02311  -3.24951
    X5        2.43031   0.00194   0.00000   0.07627   0.08045   2.51076
    Y5        2.66206   0.00284   0.00000   0.17525   0.12681   2.78887
    Z5       -2.96389  -0.00103   0.00000  -0.01813  -0.03373  -2.99762
         Item               Value     Threshold  Converged?
 Maximum Force            0.003799     0.000450     NO 
 RMS     Force            0.001767     0.000300     NO 
 Maximum Displacement     0.149324     0.001800     NO 
 RMS     Displacement     0.058110     0.001200     NO 
 Predicted change in Energy=-1.834451D-03
 GradGradGradGradGradGradGradGradGradGradGradGradGradGradGradGradGradGrad

 Leave Link  103 at Tue Apr 29 14:51:28 2014, MaxMem=   65536000 cpu:       0.0
 (Enter /apps/gaussian/g09/l9999.exe)

 Test job not archived.
 1\1\GINC-ROMEO158\Freq\UM06\6-311G(d,p)\H2N3(2)\ROOT\29-Apr-2014\0\\#P
  M06 6-311G** FREQ # GFINPUT IOP(6/7=3) POP=FULL\\RC, from TS reverse 
 4\\0,2\N,-0.10609,-0.061267,0.095553\N,-0.236293,-0.024082,1.218868\N,
 0.285437,-0.014621,-1.076899\H,-0.494833,-0.019667,-1.731792\H,1.28606
 4,1.408701,-1.568422\\Version=AM64L-G09RevA.02\State=2-A\HF=-165.22340
 42\S2=0.758484\S2-1=0.\S2A=0.750007\RMSD=4.149e-09\RMSF=1.767e-03\Zero
 Point=0.0229049\Thermal=0.0269599\Dipole=-0.6720413,-0.1876682,-0.4500
 44\DipoleDeriv=0.0354963,-0.1534352,-0.2916167,-0.1878405,0.0292529,0.
 1469889,-0.6418791,-0.2726945,2.0090282,-0.1173989,0.0256557,0.0438193
 ,0.0836882,-0.0551343,-0.0903955,0.4946597,0.3291093,-1.082155,-0.0431
 021,0.0759827,0.3285086,0.1149262,-0.2894137,-0.1286227,0.1293673,-0.0
 409071,-1.1961086,0.1590659,-0.0104285,-0.0782551,-0.0171512,0.3326695
 ,0.029192,0.0495384,0.0360427,0.3321809,-0.0340612,0.0622253,-0.002456
 1,0.0063773,-0.0173744,0.0428372,-0.0316862,-0.0515504,-0.0629455\Pola
 r=19.2419917,7.2846915,18.363933,-9.7906683,-7.2785568,43.9709106\PG=C
 01 [X(H2N3)]\NImag=1\\0.17197452,-0.00930466,0.12229804,-0.21737874,0.
 01893272,1.72716083,-0.06893544,0.00786102,0.10658288,0.04977366,0.011
 08787,-0.06351693,-0.03897555,-0.00586760,0.03483703,0.13275618,-0.021
 16006,-1.13406471,-0.14943530,0.02904815,1.19934509,-0.10098741,0.0124
 9800,0.07676469,0.01897435,-0.01101450,0.00132744,0.34210909,0.0065837
 2,-0.03405528,0.02504144,-0.00569220,0.01510527,-0.02380981,-0.0036596
 7,0.00942601,0.10579213,-0.00700544,-0.53303338,0.04263386,0.01244933,
 -0.07174823,0.09854343,0.00205539,0.78191227,0.00499968,0.00032890,0.0
 3501996,-0.00171406,-0.00002331,0.00461212,-0.26704646,-0.00796154,-0.
 23464129,0.26283932,0.00319404,-0.01266152,0.00022873,-0.00062563,0.00
 664435,-0.00082829,-0.00589599,-0.00087263,0.00591228,0.00427103,0.005
 53290,-0.02762671,0.00023046,-0.06190429,0.00193913,0.00048813,0.01075
 569,-0.17106049,0.00259851,-0.17646201,0.19615433,-0.00271684,0.226326
 08,-0.00705136,-0.01138326,-0.00098878,0.00190150,0.00581754,0.0107395
 7,0.00695043,0.01072970,-0.01232812,0.00092152,-0.00094345,0.00059374,
 -0.00272209,-0.01156096,-0.01206431,-0.00522734,0.00432441,0.00693029,
 0.01675000,0.00807216,0.01039663,-0.01341156,0.00338492,0.00135690,-0.
 00060025,-0.00422053,-0.00661951,0.00645715,0.00900231,0.00184155,-0.0
 0172057,-0.00301006,-0.00428784,-0.00557506,-0.00588553,-0.00066866,-0
 .00114511,-0.00259587,0.00128453,0.00198359,0.00248915,0.00183042\\-0.
 00199606,-0.00228662,-0.00053945,0.00119890,0.00124766,0.00060119,0.00
 239138,0.00379856,-0.00086435,0.00034687,0.00007869,-0.00022377,-0.001
 94110,-0.00283829,0.00102638\\\@


 REFRAIN FROM ILLUSIONS, INSIST ON WORK AND NOT WORDS,
 PATIENTLY SEEK DIVINE AND SCIENTIFIC TRUTH.
 LAST WORDS OF MARIA MENDELEEVA TO HER SON DMITRI, C. 1850
 Job cpu time:  0 days  0 hours  1 minutes 54.3 seconds.
 File lengths (MBytes):  RWF=      9 Int=      0 D2E=      0 Chk=      1 Scr=      1
 Normal termination of Gaussian 09 at Tue Apr 29 14:51:28 2014.
************
total 320
drwxrwxr-x 2 henon henon   4096 29 avril 14:51 .
drwxrwxr-x 3 henon henon   4096 29 avril 14:51 ..
-rw-r--r-- 1 henon henon    376 29 avril 14:51 4Rfreq.inp
-rw-rw-r-- 1 henon henon 312021 29 avril 14:51 4Rfreq.out
Run on 12 cores
romeo158
************
