 Entering Gaussian System, Link 0=g09
 Initial command:
 /apps/gaussian/g09/l1.exe /scratch_l/henon/8Rfreq_29078/Gau-29094.inp -scrdir=/scratch_l/henon/8Rfreq_29078/
 Entering Link 1 = /apps/gaussian/g09/l1.exe PID=     29095.
  
 Copyright (c) 1988,1990,1992,1993,1995,1998,2003,2009, Gaussian, Inc.
                  All Rights Reserved.
  
 This is part of the Gaussian(R) 09 program.  It is based on
 the Gaussian(R) 03 system (copyright 2003, Gaussian, Inc.),
 the Gaussian(R) 98 system (copyright 1998, Gaussian, Inc.),
 the Gaussian(R) 94 system (copyright 1995, Gaussian, Inc.),
 the Gaussian 92(TM) system (copyright 1992, Gaussian, Inc.),
 the Gaussian 90(TM) system (copyright 1990, Gaussian, Inc.),
 the Gaussian 88(TM) system (copyright 1988, Gaussian, Inc.),
 the Gaussian 86(TM) system (copyright 1986, Carnegie Mellon
 University), and the Gaussian 82(TM) system (copyright 1983,
 Carnegie Mellon University). Gaussian is a federally registered
 trademark of Gaussian, Inc.
  
 This software contains proprietary and confidential information,
 including trade secrets, belonging to Gaussian, Inc.
  
 This software is provided under written license and may be
 used, copied, transmitted, or stored only in accord with that
 written license.
  
 The following legend is applicable only to US Government
 contracts under FAR:
  
                    RESTRICTED RIGHTS LEGEND
  
 Use, reproduction and disclosure by the US Government is
 subject to restrictions as set forth in subparagraphs (a)
 and (c) of the Commercial Computer Software - Restricted
 Rights clause in FAR 52.227-19.
  
 Gaussian, Inc.
 340 Quinnipiac St., Bldg. 40, Wallingford CT 06492
  
  
 ---------------------------------------------------------------
 Warning -- This program may not be used in any manner that
 competes with the business of Gaussian, Inc. or will provide
 assistance to any competitor of Gaussian, Inc.  The licensee
 of this program is prohibited from giving any competitor of
 Gaussian, Inc. access to this program.  By using this program,
 the user acknowledges that Gaussian, Inc. is engaged in the
 business of creating and licensing software in the field of
 computational chemistry and represents and warrants to the
 licensee that it is not a competitor of Gaussian, Inc. and that
 it will not use this program in any manner prohibited above.
 ---------------------------------------------------------------
  

 Cite this work as:
 Gaussian 09, Revision A.02,
 M. J. Frisch, G. W. Trucks, H. B. Schlegel, G. E. Scuseria, 
 M. A. Robb, J. R. Cheeseman, G. Scalmani, V. Barone, B. Mennucci, 
 G. A. Petersson, H. Nakatsuji, M. Caricato, X. Li, H. P. Hratchian, 
 A. F. Izmaylov, J. Bloino, G. Zheng, J. L. Sonnenberg, M. Hada, 
 M. Ehara, K. Toyota, R. Fukuda, J. Hasegawa, M. Ishida, T. Nakajima, 
 Y. Honda, O. Kitao, H. Nakai, T. Vreven, J. A. Montgomery, Jr., 
 J. E. Peralta, F. Ogliaro, M. Bearpark, J. J. Heyd, E. Brothers, 
 K. N. Kudin, V. N. Staroverov, R. Kobayashi, J. Normand, 
 K. Raghavachari, A. Rendell, J. C. Burant, S. S. Iyengar, J. Tomasi, 
 M. Cossi, N. Rega, J. M. Millam, M. Klene, J. E. Knox, J. B. Cross, 
 V. Bakken, C. Adamo, J. Jaramillo, R. Gomperts, R. E. Stratmann, 
 O. Yazyev, A. J. Austin, R. Cammi, C. Pomelli, J. W. Ochterski, 
 R. L. Martin, K. Morokuma, V. G. Zakrzewski, G. A. Voth, 
 P. Salvador, J. J. Dannenberg, S. Dapprich, A. D. Daniels, 
 O. Farkas, J. B. Foresman, J. V. Ortiz, J. Cioslowski, 
 and D. J. Fox, Gaussian, Inc., Wallingford CT, 2009.
 
 ******************************************
 Gaussian 09:  AM64L-G09RevA.02 11-Jun-2009
                29-Apr-2014 
 ******************************************
 %NPROC=12
 Will use up to   12 processors via shared memory.
 %MEM=500MB
 --------------------------------------------------
 #P M06 6-311G** FREQ # GFINPUT IOP(6/7=3) POP=FULL
 --------------------------------------------------
 1/10=4,30=1,38=1/1,3;
 2/12=2,17=6,18=5,40=1/2;
 3/5=4,6=6,7=101,11=2,16=1,24=10,25=1,30=1,71=2,74=-54/1,2,3;
 4//1;
 5/5=2,38=5,98=1/2;
 8/6=4,10=90,11=11/1;
 11/6=1,8=1,9=11,15=111,16=1/1,2,10;
 10/6=1/2;
 6/7=3,18=1,28=1/1;
 7/8=1,10=1,25=1/1,2,3,16;
 1/10=4,30=1/3;
 99//99;
 Leave Link    1 at Tue Apr 29 14:53:18 2014, MaxMem=   65536000 cpu:       0.5
 (Enter /apps/gaussian/g09/l101.exe)
 ---------------------
 RC, from TS reverse 8
 ---------------------
 Symbolic Z-matrix:
 Charge =  0 Multiplicity = 2
 7                    -0.10281  -0.05745   0.09656 
 7                    -0.23835  -0.02618   1.21812 
 7                     0.28155  -0.02096  -1.0758 
 1                    -0.50303  -0.02184  -1.72597 
 1                     1.33121   1.4751   -1.59309 
 
 NAtoms=      5 NQM=      5 NQMF=      0 NMic=      0 NMicF=      0 NTot=      5.
                    Isotopes and Nuclear Properties:
 (Nuclear quadrupole moments (NQMom) in fm**2, nuclear magnetic moments (NMagM)
  in nuclear magnetons)

  Atom         1           2           3           4           5
 IAtWgt=          14          14          14           1           1
 AtmWgt=  14.0030740  14.0030740  14.0030740   1.0078250   1.0078250
 NucSpn=           2           2           2           1           1
 AtZEff=   0.0000000   0.0000000   0.0000000   0.0000000   0.0000000
 NQMom=    2.0440000   2.0440000   2.0440000   0.0000000   0.0000000
 NMagM=    0.4037610   0.4037610   0.4037610   2.7928460   2.7928460
 Leave Link  101 at Tue Apr 29 14:53:18 2014, MaxMem=   65536000 cpu:       0.6
 (Enter /apps/gaussian/g09/l103.exe)

 GradGradGradGradGradGradGradGradGradGradGradGradGradGradGradGradGradGrad
 Berny optimization.
 Initialization pass.
 Trust Radius=3.00D-01 FncErr=1.00D-07 GrdErr=1.00D-07
 Number of steps in this run=   2 maximum allowed number of steps=   2.
 GradGradGradGradGradGradGradGradGradGradGradGradGradGradGradGradGradGrad

 Leave Link  103 at Tue Apr 29 14:53:18 2014, MaxMem=   65536000 cpu:       0.1
 (Enter /apps/gaussian/g09/l202.exe)
                          Input orientation:                          
 ---------------------------------------------------------------------
 Center     Atomic      Atomic             Coordinates (Angstroms)
 Number     Number       Type             X           Y           Z
 ---------------------------------------------------------------------
      1          7           0       -0.102809   -0.057453    0.096557
      2          7           0       -0.238349   -0.026177    1.218120
      3          7           0        0.281554   -0.020962   -1.075799
      4          1           0       -0.503034   -0.021841   -1.725971
      5          1           0        1.331210    1.475099   -1.593092
 ---------------------------------------------------------------------
                    Distance matrix (angstroms):
                    1          2          3          4          5
     1  N    0.000000
     2  N    1.130156   0.000000
     3  N    1.234295   2.352103   0.000000
     4  H    1.866295   2.955968   1.018971   0.000000
     5  H    2.694446   3.552500   1.899360   2.371273   0.000000
 Stoichiometry    H2N3(2)
 Framework group  C1[X(H2N3)]
 Deg. of freedom     9
 Full point group                 C1      NOp   1
 Largest Abelian subgroup         C1      NOp   1
 Largest concise Abelian subgroup C1      NOp   1
                         Standard orientation:                         
 ---------------------------------------------------------------------
 Center     Atomic      Atomic             Coordinates (Angstroms)
 Number     Number       Type             X           Y           Z
 ---------------------------------------------------------------------
      1          7           0        0.201694   -0.099742    0.009945
      2          7           0        1.310844    0.116959    0.018852
      3          7           0       -1.024767   -0.119458   -0.127495
      4          1           0       -1.460221   -0.791012    0.503138
      5          1           0       -1.954175    1.506699    0.187751
 ---------------------------------------------------------------------
 Rotational constants (GHZ):    131.5492962     11.0667005     10.4112561
 Leave Link  202 at Tue Apr 29 14:53:18 2014, MaxMem=   65536000 cpu:       0.0
 (Enter /apps/gaussian/g09/l301.exe)
 Standard basis: 6-311G(d,p) (5D, 7F)
 Ernie: Thresh=  0.10000D-02 Tol=  0.10000D-05 Strict=F.
 AO basis set in the form of general basis input (Overlap normalization):
      1 0
 S   6 1.00       0.000000000000
      0.6293480000D+04  0.1969788147D-02
      0.9490440000D+03  0.1496128592D-01
      0.2187760000D+03  0.7350053084D-01
      0.6369160000D+02  0.2489367658D+00
      0.1882820000D+02  0.6024594331D+00
      0.2720230000D+01  0.2562017589D+00
 SP   3 1.00       0.000000000000
      0.3063310000D+02  0.1119060795D+00  0.3831191864D-01
      0.7026140000D+01  0.9216666549D+00  0.2374031155D+00
      0.2112050000D+01 -0.2569191826D-02  0.8175923978D+00
 SP   1 1.00       0.000000000000
      0.6840090000D+00  0.1000000000D+01  0.1000000000D+01
 SP   1 1.00       0.000000000000
      0.2008780000D+00  0.1000000000D+01  0.1000000000D+01
 D   1 1.00       0.000000000000
      0.9130000000D+00  0.1000000000D+01
 ****
      2 0
 S   6 1.00       0.000000000000
      0.6293480000D+04  0.1969788147D-02
      0.9490440000D+03  0.1496128592D-01
      0.2187760000D+03  0.7350053084D-01
      0.6369160000D+02  0.2489367658D+00
      0.1882820000D+02  0.6024594331D+00
      0.2720230000D+01  0.2562017589D+00
 SP   3 1.00       0.000000000000
      0.3063310000D+02  0.1119060795D+00  0.3831191864D-01
      0.7026140000D+01  0.9216666549D+00  0.2374031155D+00
      0.2112050000D+01 -0.2569191826D-02  0.8175923978D+00
 SP   1 1.00       0.000000000000
      0.6840090000D+00  0.1000000000D+01  0.1000000000D+01
 SP   1 1.00       0.000000000000
      0.2008780000D+00  0.1000000000D+01  0.1000000000D+01
 D   1 1.00       0.000000000000
      0.9130000000D+00  0.1000000000D+01
 ****
      3 0
 S   6 1.00       0.000000000000
      0.6293480000D+04  0.1969788147D-02
      0.9490440000D+03  0.1496128592D-01
      0.2187760000D+03  0.7350053084D-01
      0.6369160000D+02  0.2489367658D+00
      0.1882820000D+02  0.6024594331D+00
      0.2720230000D+01  0.2562017589D+00
 SP   3 1.00       0.000000000000
      0.3063310000D+02  0.1119060795D+00  0.3831191864D-01
      0.7026140000D+01  0.9216666549D+00  0.2374031155D+00
      0.2112050000D+01 -0.2569191826D-02  0.8175923978D+00
 SP   1 1.00       0.000000000000
      0.6840090000D+00  0.1000000000D+01  0.1000000000D+01
 SP   1 1.00       0.000000000000
      0.2008780000D+00  0.1000000000D+01  0.1000000000D+01
 D   1 1.00       0.000000000000
      0.9130000000D+00  0.1000000000D+01
 ****
      4 0
 S   3 1.00       0.000000000000
      0.3386500000D+02  0.2549381454D-01
      0.5094790000D+01  0.1903731086D+00
      0.1158790000D+01  0.8521614860D+00
 S   1 1.00       0.000000000000
      0.3258400000D+00  0.1000000000D+01
 S   1 1.00       0.000000000000
      0.1027410000D+00  0.1000000000D+01
 P   1 1.00       0.000000000000
      0.7500000000D+00  0.1000000000D+01
 ****
      5 0
 S   3 1.00       0.000000000000
      0.3386500000D+02  0.2549381454D-01
      0.5094790000D+01  0.1903731086D+00
      0.1158790000D+01  0.8521614860D+00
 S   1 1.00       0.000000000000
      0.3258400000D+00  0.1000000000D+01
 S   1 1.00       0.000000000000
      0.1027410000D+00  0.1000000000D+01
 P   1 1.00       0.000000000000
      0.7500000000D+00  0.1000000000D+01
 ****

 There are    66 symmetry adapted basis functions of A   symmetry.
 Integral buffers will be    131072 words long.
 Raffenetti 2 integral format.
 Two-electron integral symmetry is turned on.
    66 basis functions,   112 primitive gaussians,    69 cartesian basis functions
    12 alpha electrons       11 beta electrons
       nuclear repulsion energy        66.4392981458 Hartrees.
 IExCor= 4235 DFT=T Ex+Corr=M06 ExCW=0 ScaHFX=  0.270000
 ScaDFX=  1.000000  1.000000  1.000000  1.000000 ScalE2=  1.000000  1.000000
 IRadAn=      0 IRanWt=     -1 IRanGd=            0 ICorTp=0
 NAtoms=    5 NActive=    5 NUniq=    5 SFac= 7.50D-01 NAtFMM=   80 NAOKFM=F Big=F
 Leave Link  301 at Tue Apr 29 14:53:18 2014, MaxMem=   65536000 cpu:       0.4
 (Enter /apps/gaussian/g09/l302.exe)
 NPDir=0 NMtPBC=     1 NCelOv=     1 NCel=       1 NClECP=     1 NCelD=      1
         NCelK=      1 NCelE2=     1 NClLst=     1 CellRange=     0.0.
 One-electron integrals computed using PRISM.
 NBasis=    66 RedAO= T  NBF=    66
 NBsUse=    66 1.00D-06 NBFU=    66
 Precomputing XC quadrature grid using
 IXCGrd= 2 IRadAn=           0 IRanWt=          -1 IRanGd=           0 AccXCQ= 1.00D-10.
 NRdTot=     311 NPtTot=       39452 NUsed=       41707 NTot=       41739
 NSgBfM=    69    69    69    69    69 NAtAll=     5     5.
 Leave Link  302 at Tue Apr 29 14:53:18 2014, MaxMem=   65536000 cpu:       2.0
 (Enter /apps/gaussian/g09/l303.exe)
 DipDrv:  MaxL=1.
 Leave Link  303 at Tue Apr 29 14:53:18 2014, MaxMem=   65536000 cpu:       0.1
 (Enter /apps/gaussian/g09/l401.exe)
 Harris functional with IExCor= 1009 diagonalized for initial guess.
 ExpMin= 1.03D-01 ExpMax= 6.29D+03 ExpMxC= 9.49D+02 IAcc=1 IRadAn=         1 AccDes= 0.00D+00
 HarFok:  IExCor= 1009 AccDes= 0.00D+00 IRadAn=         1 IDoV= 1
 ScaDFX=  1.000000  1.000000  1.000000  1.000000
 FoFCou: FMM=F IPFlag=           0 FMFlag=      100000 FMFlg1=           0
         NFxFlg=           0 DoJE=T BraDBF=F KetDBF=T FulRan=T
         Omega=  0.000000  0.000000  1.000000  0.000000  0.000000 ICntrl=     500 IOpCl=  0
         NMat0=    1 NMatS0=    1 NMatT0=    0 NMatD0=    1 NMtDS0=    0 NMtDT0=    0
         I1Cent=           4 NGrid=           0.
 Petite list used in FoFCou.
 Harris En= -165.163951771012    
 Initial guess orbital symmetries:
 Alpha Orbitals:
       Occupied  (A) (A) (A) (A) (A) (A) (A) (A) (A) (A) (A) (A)
       Virtual   (A) (A) (A) (A) (A) (A) (A) (A) (A) (A) (A) (A)
                 (A) (A) (A) (A) (A) (A) (A) (A) (A) (A) (A) (A)
                 (A) (A) (A) (A) (A) (A) (A) (A) (A) (A) (A) (A)
                 (A) (A) (A) (A) (A) (A) (A) (A) (A) (A) (A) (A)
                 (A) (A) (A) (A) (A) (A)
 Beta  Orbitals:
       Occupied  (A) (A) (A) (A) (A) (A) (A) (A) (A) (A) (A)
       Virtual   (A) (A) (A) (A) (A) (A) (A) (A) (A) (A) (A) (A)
                 (A) (A) (A) (A) (A) (A) (A) (A) (A) (A) (A) (A)
                 (A) (A) (A) (A) (A) (A) (A) (A) (A) (A) (A) (A)
                 (A) (A) (A) (A) (A) (A) (A) (A) (A) (A) (A) (A)
                 (A) (A) (A) (A) (A) (A) (A)
 The electronic state of the initial guess is 2-A.
 Initial guess <Sx>= 0.0000 <Sy>= 0.0000 <Sz>= 0.5000 <S**2>= 0.7500 S= 0.5000
 Leave Link  401 at Tue Apr 29 14:53:19 2014, MaxMem=   65536000 cpu:       2.8
 (Enter /apps/gaussian/g09/l502.exe)
 UHF open shell SCF:
 Requested convergence on RMS density matrix=1.00D-08 within 128 cycles.
 Requested convergence on MAX density matrix=1.00D-06.
 Requested convergence on             energy=1.00D-06.
 No special actions if energy rises.
 Using DIIS extrapolation, IDIIS=  1040.
 Integral symmetry usage will be decided dynamically.
        41649 words used for storage of precomputed grid.
 Keep R1 and R2 ints in memory in canonical form, NReq=6799222.
 IEnd=       75419 IEndB=       75419 NGot=    65536000 MDV=    59647384
 LenX=    59647384 LenY=    59642182
 Symmetry not used in FoFDir.
 MinBra= 0 MaxBra= 2 Meth= 1.
 IRaf=       0 NMat=   1 IRICut=       1 DoRegI=T DoRafI=F ISym2E= 0 JSym2E=0.
 Integral accuracy reduced to 1.0D-05 until final iterations.

 Cycle   1  Pass 0  IDiag  1:
 E= -165.178918353485    
 DIIS: error= 2.66D-02 at cycle   1 NSaved=   1.
 NSaved= 1 IEnMin= 1 EnMin= -165.178918353485     IErMin= 1 ErrMin= 2.66D-02
 ErrMax= 2.66D-02 EMaxC= 1.00D-01 BMatC= 2.19D-01 BMatP= 2.19D-01
 IDIUse=3 WtCom= 7.34D-01 WtEn= 2.66D-01
 Coeff-Com:  0.100D+01
 Coeff-En:   0.100D+01
 Coeff:      0.100D+01
 Gap=     0.187 Goal=   None    Shift=    0.000
 Gap=     0.201 Goal=   None    Shift=    0.000
 GapD=    0.187 DampG=1.000 DampE=0.500 DampFc=0.5000 IDamp=-1.
 Damping current iteration by 5.00D-01
 RMSDP=5.91D-03 MaxDP=1.33D-01              OVMax= 1.38D-01

 Cycle   2  Pass 0  IDiag  1:
 E= -165.192437872774     Delta-E=       -0.013519519289 Rises=F Damp=T
 DIIS: error= 8.85D-03 at cycle   2 NSaved=   2.
 NSaved= 2 IEnMin= 2 EnMin= -165.192437872774     IErMin= 2 ErrMin= 8.85D-03
 ErrMax= 8.85D-03 EMaxC= 1.00D-01 BMatC= 3.35D-02 BMatP= 2.19D-01
 IDIUse=3 WtCom= 9.12D-01 WtEn= 8.85D-02
 Coeff-Com:  0.215D+00 0.785D+00
 Coeff-En:   0.309D+00 0.691D+00
 Coeff:      0.224D+00 0.776D+00
 Gap=     0.194 Goal=   None    Shift=    0.000
 Gap=     0.226 Goal=   None    Shift=    0.000
 RMSDP=1.31D-03 MaxDP=2.16D-02 DE=-1.35D-02 OVMax= 8.99D-02

 Cycle   3  Pass 0  IDiag  1:
 E= -165.222265772140     Delta-E=       -0.029827899366 Rises=F Damp=F
 DIIS: error= 4.79D-03 at cycle   3 NSaved=   3.
 NSaved= 3 IEnMin= 3 EnMin= -165.222265772140     IErMin= 3 ErrMin= 4.79D-03
 ErrMax= 4.79D-03 EMaxC= 1.00D-01 BMatC= 7.48D-03 BMatP= 3.35D-02
 IDIUse=3 WtCom= 9.52D-01 WtEn= 4.79D-02
 Coeff-Com:  0.324D-01 0.299D+00 0.669D+00
 Coeff-En:   0.000D+00 0.000D+00 0.100D+01
 Coeff:      0.308D-01 0.285D+00 0.684D+00
 Gap=     0.193 Goal=   None    Shift=    0.000
 Gap=     0.241 Goal=   None    Shift=    0.000
 RMSDP=6.46D-04 MaxDP=9.85D-03 DE=-2.98D-02 OVMax= 2.59D-02

 Cycle   4  Pass 0  IDiag  1:
 E= -165.222873942591     Delta-E=       -0.000608170451 Rises=F Damp=F
 DIIS: error= 6.44D-03 at cycle   4 NSaved=   4.
 NSaved= 4 IEnMin= 4 EnMin= -165.222873942591     IErMin= 3 ErrMin= 4.79D-03
 ErrMax= 6.44D-03 EMaxC= 1.00D-01 BMatC= 5.80D-03 BMatP= 7.48D-03
 IDIUse=3 WtCom= 9.36D-01 WtEn= 6.44D-02
 Coeff-Com: -0.216D-02 0.106D+00 0.480D+00 0.415D+00
 Coeff-En:   0.000D+00 0.000D+00 0.391D+00 0.609D+00
 Coeff:     -0.202D-02 0.996D-01 0.475D+00 0.428D+00
 Gap=     0.194 Goal=   None    Shift=    0.000
 Gap=     0.240 Goal=   None    Shift=    0.000
 RMSDP=4.54D-04 MaxDP=5.19D-03 DE=-6.08D-04 OVMax= 1.99D-02

 Cycle   5  Pass 0  IDiag  1:
 E= -165.223848173608     Delta-E=       -0.000974231017 Rises=F Damp=F
 DIIS: error= 3.35D-03 at cycle   5 NSaved=   5.
 NSaved= 5 IEnMin= 5 EnMin= -165.223848173608     IErMin= 5 ErrMin= 3.35D-03
 ErrMax= 3.35D-03 EMaxC= 1.00D-01 BMatC= 1.33D-03 BMatP= 5.80D-03
 IDIUse=3 WtCom= 9.66D-01 WtEn= 3.35D-02
 Coeff-Com: -0.132D-01-0.223D-02 0.164D+00 0.332D+00 0.520D+00
 Coeff-En:   0.000D+00 0.000D+00 0.000D+00 0.218D+00 0.782D+00
 Coeff:     -0.128D-01-0.216D-02 0.158D+00 0.328D+00 0.529D+00
 Gap=     0.200 Goal=   None    Shift=    0.000
 Gap=     0.243 Goal=   None    Shift=    0.000
 RMSDP=2.76D-04 MaxDP=3.99D-03 DE=-9.74D-04 OVMax= 1.36D-02

 Cycle   6  Pass 0  IDiag  1:
 E= -165.224196055438     Delta-E=       -0.000347881829 Rises=F Damp=F
 DIIS: error= 7.93D-04 at cycle   6 NSaved=   6.
 NSaved= 6 IEnMin= 6 EnMin= -165.224196055438     IErMin= 6 ErrMin= 7.93D-04
 ErrMax= 7.93D-04 EMaxC= 1.00D-01 BMatC= 8.37D-05 BMatP= 1.33D-03
 IDIUse=3 WtCom= 9.92D-01 WtEn= 7.93D-03
 Coeff-Com: -0.688D-02-0.108D-01-0.795D-01-0.730D-01 0.128D+00 0.104D+01
 Coeff-En:   0.000D+00 0.000D+00 0.000D+00 0.000D+00 0.000D+00 0.100D+01
 Coeff:     -0.683D-02-0.107D-01-0.788D-01-0.724D-01 0.127D+00 0.104D+01
 Gap=     0.200 Goal=   None    Shift=    0.000
 Gap=     0.246 Goal=   None    Shift=    0.000
 RMSDP=1.14D-04 MaxDP=1.99D-03 DE=-3.48D-04 OVMax= 7.50D-03

 Cycle   7  Pass 0  IDiag  1:
 E= -165.224241743783     Delta-E=       -0.000045688345 Rises=F Damp=F
 DIIS: error= 1.52D-04 at cycle   7 NSaved=   7.
 NSaved= 7 IEnMin= 7 EnMin= -165.224241743783     IErMin= 7 ErrMin= 1.52D-04
 ErrMax= 1.52D-04 EMaxC= 1.00D-01 BMatC= 3.73D-06 BMatP= 8.37D-05
 IDIUse=3 WtCom= 9.98D-01 WtEn= 1.52D-03
 Coeff-Com: -0.134D-04 0.462D-03-0.211D-01-0.403D-01-0.536D-01 0.152D+00
 Coeff-Com:  0.962D+00
 Coeff-En:   0.000D+00 0.000D+00 0.000D+00 0.000D+00 0.000D+00 0.000D+00
 Coeff-En:   0.100D+01
 Coeff:     -0.134D-04 0.462D-03-0.211D-01-0.403D-01-0.536D-01 0.152D+00
 Coeff:      0.962D+00
 Gap=     0.201 Goal=   None    Shift=    0.000
 Gap=     0.247 Goal=   None    Shift=    0.000
 RMSDP=4.05D-05 MaxDP=6.53D-04 DE=-4.57D-05 OVMax= 1.71D-03

 Cycle   8  Pass 0  IDiag  1:
 E= -165.224244523661     Delta-E=       -0.000002779878 Rises=F Damp=F
 DIIS: error= 3.87D-05 at cycle   8 NSaved=   8.
 NSaved= 8 IEnMin= 8 EnMin= -165.224244523661     IErMin= 8 ErrMin= 3.87D-05
 ErrMax= 3.87D-05 EMaxC= 1.00D-01 BMatC= 1.87D-07 BMatP= 3.73D-06
 IDIUse=1 WtCom= 1.00D+00 WtEn= 0.00D+00
 Coeff-Com:  0.307D-03 0.665D-03 0.608D-02 0.369D-02-0.101D-02-0.590D-01
 Coeff-Com: -0.849D-01 0.113D+01
 Coeff:      0.307D-03 0.665D-03 0.608D-02 0.369D-02-0.101D-02-0.590D-01
 Coeff:     -0.849D-01 0.113D+01
 Gap=     0.201 Goal=   None    Shift=    0.000
 Gap=     0.247 Goal=   None    Shift=    0.000
 RMSDP=9.88D-06 MaxDP=1.59D-04 DE=-2.78D-06 OVMax= 5.24D-04

 Initial convergence to 1.0D-05 achieved.  Increase integral accuracy.
 Cycle   9  Pass 1  IDiag  1:
 E= -165.224243516568     Delta-E=        0.000001007093 Rises=F Damp=F
 DIIS: error= 2.23D-04 at cycle   1 NSaved=   1.
 NSaved= 1 IEnMin= 1 EnMin= -165.224243516568     IErMin= 1 ErrMin= 2.23D-04
 ErrMax= 2.23D-04 EMaxC= 1.00D-01 BMatC= 2.02D-05 BMatP= 2.02D-05
 IDIUse=3 WtCom= 9.98D-01 WtEn= 2.23D-03
 Coeff-Com:  0.100D+01
 Coeff-En:   0.100D+01
 Coeff:      0.100D+01
 Gap=     0.201 Goal=   None    Shift=    0.000
 Gap=     0.247 Goal=   None    Shift=    0.000
 RMSDP=9.88D-06 MaxDP=1.59D-04 DE= 1.01D-06 OVMax= 6.61D-04

 Cycle  10  Pass 1  IDiag  1:
 E= -165.224247430963     Delta-E=       -0.000003914395 Rises=F Damp=F
 DIIS: error= 1.54D-05 at cycle   2 NSaved=   2.
 NSaved= 2 IEnMin= 2 EnMin= -165.224247430963     IErMin= 2 ErrMin= 1.54D-05
 ErrMax= 1.54D-05 EMaxC= 1.00D-01 BMatC= 1.07D-07 BMatP= 2.02D-05
 IDIUse=1 WtCom= 1.00D+00 WtEn= 0.00D+00
 Coeff-Com:  0.942D-02 0.991D+00
 Coeff:      0.942D-02 0.991D+00
 Gap=     0.201 Goal=   None    Shift=    0.000
 Gap=     0.247 Goal=   None    Shift=    0.000
 RMSDP=5.67D-06 MaxDP=1.27D-04 DE=-3.91D-06 OVMax= 1.16D-04

 Cycle  11  Pass 1  IDiag  1:
 E= -165.224247452323     Delta-E=       -0.000000021359 Rises=F Damp=F
 DIIS: error= 1.89D-05 at cycle   3 NSaved=   3.
 NSaved= 3 IEnMin= 3 EnMin= -165.224247452323     IErMin= 2 ErrMin= 1.54D-05
 ErrMax= 1.89D-05 EMaxC= 1.00D-01 BMatC= 8.77D-08 BMatP= 1.07D-07
 IDIUse=1 WtCom= 1.00D+00 WtEn= 0.00D+00
 Coeff-Com: -0.778D-03 0.466D+00 0.535D+00
 Coeff:     -0.778D-03 0.466D+00 0.535D+00
 Gap=     0.201 Goal=   None    Shift=    0.000
 Gap=     0.247 Goal=   None    Shift=    0.000
 RMSDP=1.88D-06 MaxDP=3.25D-05 DE=-2.14D-08 OVMax= 6.23D-05

 Cycle  12  Pass 1  IDiag  1:
 E= -165.224247463800     Delta-E=       -0.000000011477 Rises=F Damp=F
 DIIS: error= 1.28D-05 at cycle   4 NSaved=   4.
 NSaved= 4 IEnMin= 4 EnMin= -165.224247463800     IErMin= 4 ErrMin= 1.28D-05
 ErrMax= 1.28D-05 EMaxC= 1.00D-01 BMatC= 3.69D-08 BMatP= 8.77D-08
 IDIUse=1 WtCom= 1.00D+00 WtEn= 0.00D+00
 Coeff-Com: -0.246D-02 0.686D-01 0.380D+00 0.554D+00
 Coeff:     -0.246D-02 0.686D-01 0.380D+00 0.554D+00
 Gap=     0.201 Goal=   None    Shift=    0.000
 Gap=     0.247 Goal=   None    Shift=    0.000
 RMSDP=1.36D-06 MaxDP=1.96D-05 DE=-1.15D-08 OVMax= 5.75D-05

 Cycle  13  Pass 1  IDiag  1:
 E= -165.224247469259     Delta-E=       -0.000000005459 Rises=F Damp=F
 DIIS: error= 1.08D-05 at cycle   5 NSaved=   5.
 NSaved= 5 IEnMin= 5 EnMin= -165.224247469259     IErMin= 5 ErrMin= 1.08D-05
 ErrMax= 1.08D-05 EMaxC= 1.00D-01 BMatC= 1.21D-08 BMatP= 3.69D-08
 IDIUse=1 WtCom= 1.00D+00 WtEn= 0.00D+00
 Coeff-Com: -0.184D-02-0.212D-01 0.186D+00 0.418D+00 0.419D+00
 Coeff:     -0.184D-02-0.212D-01 0.186D+00 0.418D+00 0.419D+00
 Gap=     0.201 Goal=   None    Shift=    0.000
 Gap=     0.247 Goal=   None    Shift=    0.000
 RMSDP=6.60D-07 MaxDP=8.51D-06 DE=-5.46D-09 OVMax= 3.15D-05

 Cycle  14  Pass 1  IDiag  1:
 E= -165.224247472301     Delta-E=       -0.000000003042 Rises=F Damp=F
 DIIS: error= 2.33D-06 at cycle   6 NSaved=   6.
 NSaved= 6 IEnMin= 6 EnMin= -165.224247472301     IErMin= 6 ErrMin= 2.33D-06
 ErrMax= 2.33D-06 EMaxC= 1.00D-01 BMatC= 1.27D-09 BMatP= 1.21D-08
 IDIUse=1 WtCom= 1.00D+00 WtEn= 0.00D+00
 Coeff-Com: -0.577D-03-0.256D-01 0.364D-01 0.129D+00 0.245D+00 0.616D+00
 Coeff:     -0.577D-03-0.256D-01 0.364D-01 0.129D+00 0.245D+00 0.616D+00
 Gap=     0.201 Goal=   None    Shift=    0.000
 Gap=     0.247 Goal=   None    Shift=    0.000
 RMSDP=3.19D-07 MaxDP=3.97D-06 DE=-3.04D-09 OVMax= 1.56D-05

 Cycle  15  Pass 1  IDiag  1:
 E= -165.224247472845     Delta-E=       -0.000000000544 Rises=F Damp=F
 DIIS: error= 1.16D-06 at cycle   7 NSaved=   7.
 NSaved= 7 IEnMin= 7 EnMin= -165.224247472845     IErMin= 7 ErrMin= 1.16D-06
 ErrMax= 1.16D-06 EMaxC= 1.00D-01 BMatC= 2.63D-10 BMatP= 1.27D-09
 IDIUse=1 WtCom= 1.00D+00 WtEn= 0.00D+00
 Coeff-Com:  0.617D-03-0.604D-02-0.634D-01-0.139D+00-0.103D+00 0.199D+00
 Coeff-Com:  0.111D+01
 Coeff:      0.617D-03-0.604D-02-0.634D-01-0.139D+00-0.103D+00 0.199D+00
 Coeff:      0.111D+01
 Gap=     0.201 Goal=   None    Shift=    0.000
 Gap=     0.247 Goal=   None    Shift=    0.000
 RMSDP=3.56D-07 MaxDP=5.09D-06 DE=-5.44D-10 OVMax= 1.62D-05

 Cycle  16  Pass 1  IDiag  1:
 E= -165.224247473118     Delta-E=       -0.000000000273 Rises=F Damp=F
 DIIS: error= 4.16D-07 at cycle   8 NSaved=   8.
 NSaved= 8 IEnMin= 8 EnMin= -165.224247473118     IErMin= 8 ErrMin= 4.16D-07
 ErrMax= 4.16D-07 EMaxC= 1.00D-01 BMatC= 2.03D-11 BMatP= 2.63D-10
 IDIUse=1 WtCom= 1.00D+00 WtEn= 0.00D+00
 Coeff-Com:  0.178D-03 0.422D-02-0.985D-02-0.378D-01-0.429D-01-0.834D-01
 Coeff-Com:  0.993D-01 0.107D+01
 Coeff:      0.178D-03 0.422D-02-0.985D-02-0.378D-01-0.429D-01-0.834D-01
 Coeff:      0.993D-01 0.107D+01
 Gap=     0.201 Goal=   None    Shift=    0.000
 Gap=     0.247 Goal=   None    Shift=    0.000
 RMSDP=1.28D-07 MaxDP=1.86D-06 DE=-2.73D-10 OVMax= 5.81D-06

 Cycle  17  Pass 1  IDiag  1:
 E= -165.224247473150     Delta-E=       -0.000000000032 Rises=F Damp=F
 DIIS: error= 2.26D-07 at cycle   9 NSaved=   9.
 NSaved= 9 IEnMin= 9 EnMin= -165.224247473150     IErMin= 9 ErrMin= 2.26D-07
 ErrMax= 2.26D-07 EMaxC= 1.00D-01 BMatC= 3.03D-12 BMatP= 2.03D-11
 IDIUse=1 WtCom= 1.00D+00 WtEn= 0.00D+00
 Coeff-Com: -0.902D-04-0.659D-04 0.773D-02 0.211D-01 0.109D-01-0.770D-02
 Coeff-Com: -0.135D+00-0.128D+00 0.123D+01
 Coeff:     -0.902D-04-0.659D-04 0.773D-02 0.211D-01 0.109D-01-0.770D-02
 Coeff:     -0.135D+00-0.128D+00 0.123D+01
 Gap=     0.201 Goal=   None    Shift=    0.000
 Gap=     0.247 Goal=   None    Shift=    0.000
 RMSDP=4.30D-08 MaxDP=5.28D-07 DE=-3.21D-11 OVMax= 1.95D-06

 Cycle  18  Pass 1  IDiag  1:
 E= -165.224247473154     Delta-E=       -0.000000000004 Rises=F Damp=F
 DIIS: error= 7.78D-08 at cycle  10 NSaved=  10.
 NSaved=10 IEnMin=10 EnMin= -165.224247473154     IErMin=10 ErrMin= 7.78D-08
 ErrMax= 7.78D-08 EMaxC= 1.00D-01 BMatC= 4.51D-13 BMatP= 3.03D-12
 IDIUse=1 WtCom= 1.00D+00 WtEn= 0.00D+00
 Coeff-Com: -0.125D-04-0.612D-03 0.489D-03 0.252D-02 0.463D-02 0.126D-01
 Coeff-Com:  0.215D-01-0.181D+00-0.300D+00 0.144D+01
 Coeff:     -0.125D-04-0.612D-03 0.489D-03 0.252D-02 0.463D-02 0.126D-01
 Coeff:      0.215D-01-0.181D+00-0.300D+00 0.144D+01
 Gap=     0.201 Goal=   None    Shift=    0.000
 Gap=     0.247 Goal=   None    Shift=    0.000
 RMSDP=2.27D-08 MaxDP=3.35D-07 DE=-3.98D-12 OVMax= 9.93D-07

 Cycle  19  Pass 1  IDiag  1:
 E= -165.224247473156     Delta-E=       -0.000000000001 Rises=F Damp=F
 DIIS: error= 2.36D-08 at cycle  11 NSaved=  11.
 NSaved=11 IEnMin=11 EnMin= -165.224247473156     IErMin=11 ErrMin= 2.36D-08
 ErrMax= 2.36D-08 EMaxC= 1.00D-01 BMatC= 3.18D-14 BMatP= 4.51D-13
 IDIUse=1 WtCom= 1.00D+00 WtEn= 0.00D+00
 Coeff-Com:  0.693D-05 0.531D-04-0.675D-03-0.227D-02-0.907D-03-0.412D-03
 Coeff-Com:  0.856D-02 0.301D-01-0.603D-01-0.184D+00 0.121D+01
 Coeff:      0.693D-05 0.531D-04-0.675D-03-0.227D-02-0.907D-03-0.412D-03
 Coeff:      0.856D-02 0.301D-01-0.603D-01-0.184D+00 0.121D+01
 Gap=     0.201 Goal=   None    Shift=    0.000
 Gap=     0.247 Goal=   None    Shift=    0.000
 RMSDP=4.71D-09 MaxDP=7.71D-08 DE=-1.48D-12 OVMax= 2.52D-07

 SCF Done:  E(UM06) =  -165.224247473     A.U. after   19 cycles
             Convg  =    0.4706D-08             -V/T =  2.0019
 <Sx>= 0.0000 <Sy>= 0.0000 <Sz>= 0.5000 <S**2>= 0.7558 S= 0.5029
 <L.S>=  0.00000000000    
 KE= 1.649108899360D+02 PE=-5.193292784354D+02 EE= 1.227548428804D+02
 Annihilation of the first spin contaminant:
 S**2 before annihilation     0.7558,   after     0.7500
 Leave Link  502 at Tue Apr 29 14:53:20 2014, MaxMem=   65536000 cpu:      16.6
 (Enter /apps/gaussian/g09/l801.exe)
 Range of M.O.s used for correlation:     1    66
 NBasis=    66 NAE=    12 NBE=    11 NFC=     0 NFV=     0
 NROrb=     66 NOA=    12 NOB=    11 NVA=    54 NVB=    55

 **** Warning!!: The largest alpha MO coefficient is  0.10732779D+02


 **** Warning!!: The largest beta MO coefficient is  0.10813462D+02

 Leave Link  801 at Tue Apr 29 14:53:20 2014, MaxMem=   65536000 cpu:       0.1
 (Enter /apps/gaussian/g09/l1101.exe)
 Using compressed storage, NAtomX=     5.
 Will process   6 centers per pass.
 Leave Link 1101 at Tue Apr 29 14:53:20 2014, MaxMem=   65536000 cpu:       2.6
 (Enter /apps/gaussian/g09/l1102.exe)
 Symmetrizing basis deriv contribution to polar:
 IMax=3 JMax=2 DiffMx= 0.00D+00
 Leave Link 1102 at Tue Apr 29 14:53:20 2014, MaxMem=   65536000 cpu:       0.2
 (Enter /apps/gaussian/g09/l1110.exe)
 Forming Gx(P) for the SCF density, NAtomX=     5.
 Integral derivatives from FoFDir/FoFCou, PRISM(SPDF).
 Do as many integral derivatives as possible in FoFDir.
 G2DrvN: MDV=      65535856.
 G2DrvN: will do     6 centers at a time, making    1 passes doing MaxLOS=2.
 Calling FoFCou, ICntrl=  3107 FMM=F I1Cent=   0 AccDes= 0.00D+00.
 FoFCou: FMM=F IPFlag=           0 FMFlag=      100000 FMFlg1=           0
         NFxFlg=           0 DoJE=F BraDBF=F KetDBF=F FulRan=T
         Omega=  0.000000  0.000000  1.000000  0.000000  0.000000 ICntrl=    3107 IOpCl=  1
         NMat0=    1 NMatS0=    1 NMatT0=    0 NMatD0=    1 NMtDS0=    0 NMtDT0=    0
         I1Cent=           0 NGrid=           0.
 Symmetry not used in FoFCou.
 FoFDir/FoFCou used for L=0 through L=2.
 End of G2Drv Frequency-dependent properties file   721 does not exist.
 End of G2Drv Frequency-dependent properties file   722 does not exist.
 Leave Link 1110 at Tue Apr 29 14:53:22 2014, MaxMem=   65536000 cpu:      17.8
 (Enter /apps/gaussian/g09/l1002.exe)
 Minotr:  UHF open shell wavefunction.
          IDoAtm=11111
          Direct CPHF calculation.
          Differentiating once with respect to electric field.
                with respect to dipole field.
          Differentiating once with respect to nuclear coordinates.
          Requested convergence is 1.0D-08 RMS, and 1.0D-07 maximum.
          Secondary convergence is 1.0D-12 RMS, and 1.0D-12 maximum.
          NewPWx=T KeepS1=F KeepF1=F KeepIn=T MapXYZ=F SortEE=F KeepMc=T.
          MDV=      65535946 using IRadAn=       2.
 Generate precomputed XC quadrature information.
          Keep R1 and R2 ints in memory in canonical form, NReq=6656460.
 Symmetry not used in FoFDir.
 MinBra= 0 MaxBra= 2 Meth= 1.
 IRaf=       0 NMat=   1 IRICut=       1 DoRegI=T DoRafI=F ISym2E= 0 JSym2E=0.
          Solving linear equations simultaneously, MaxMat=       0.
          There are    18 degrees of freedom in the 1st order CPHF.  IDoFFX=5.
     15 vectors produced by pass  0 Test12= 6.96D-15 5.56D-09 XBig12= 1.54D+02 5.15D+00.
 AX will form    15 AO Fock derivatives at one time.
     15 vectors produced by pass  1 Test12= 6.96D-15 5.56D-09 XBig12= 6.63D+01 1.39D+00.
     15 vectors produced by pass  2 Test12= 6.96D-15 5.56D-09 XBig12= 1.04D+00 2.05D-01.
     15 vectors produced by pass  3 Test12= 6.96D-15 5.56D-09 XBig12= 1.73D-02 3.46D-02.
     15 vectors produced by pass  4 Test12= 6.96D-15 5.56D-09 XBig12= 2.82D-04 3.34D-03.
     15 vectors produced by pass  5 Test12= 6.96D-15 5.56D-09 XBig12= 2.56D-06 3.79D-04.
     13 vectors produced by pass  6 Test12= 6.96D-15 5.56D-09 XBig12= 1.54D-08 1.89D-05.
      6 vectors produced by pass  7 Test12= 6.96D-15 5.56D-09 XBig12= 4.71D-11 1.02D-06.
      3 vectors produced by pass  8 Test12= 6.96D-15 5.56D-09 XBig12= 1.18D-13 4.68D-08.
 Inverted reduced A of dimension   112 with in-core refinement.
 FullF1:  Do perturbations    1 to     3.
 Isotropic polarizability for W=    0.000000       26.20 Bohr**3.
 End of Minotr Frequency-dependent properties file   721 does not exist.
 End of Minotr Frequency-dependent properties file   722 does not exist.
 Leave Link 1002 at Tue Apr 29 14:53:24 2014, MaxMem=   65536000 cpu:      22.8
 (Enter /apps/gaussian/g09/l601.exe)
 Copying SCF densities to generalized density rwf, IOpCl= 1 IROHF=0.

 **********************************************************************

            Population analysis using the SCF density.

 **********************************************************************

 Orbital symmetries:
 Alpha Orbitals:
       Occupied  (A) (A) (A) (A) (A) (A) (A) (A) (A) (A) (A) (A)
       Virtual   (A) (A) (A) (A) (A) (A) (A) (A) (A) (A) (A) (A)
                 (A) (A) (A) (A) (A) (A) (A) (A) (A) (A) (A) (A)
                 (A) (A) (A) (A) (A) (A) (A) (A) (A) (A) (A) (A)
                 (A) (A) (A) (A) (A) (A) (A) (A) (A) (A) (A) (A)
                 (A) (A) (A) (A) (A) (A)
 Beta  Orbitals:
       Occupied  (A) (A) (A) (A) (A) (A) (A) (A) (A) (A) (A)
       Virtual   (A) (A) (A) (A) (A) (A) (A) (A) (A) (A) (A) (A)
                 (A) (A) (A) (A) (A) (A) (A) (A) (A) (A) (A) (A)
                 (A) (A) (A) (A) (A) (A) (A) (A) (A) (A) (A) (A)
                 (A) (A) (A) (A) (A) (A) (A) (A) (A) (A) (A) (A)
                 (A) (A) (A) (A) (A) (A) (A)
 The electronic state is 2-A.
 Alpha  occ. eigenvalues --  -14.57297 -14.47173 -14.44988  -1.17704  -1.00920
 Alpha  occ. eigenvalues --   -0.65250  -0.55571  -0.54664  -0.48025  -0.37892
 Alpha  occ. eigenvalues --   -0.32062  -0.23662
 Alpha virt. eigenvalues --   -0.03581   0.00902   0.03800   0.22701   0.25743
 Alpha virt. eigenvalues --    0.36758   0.42033   0.45503   0.50171   0.52650
 Alpha virt. eigenvalues --    0.60491   0.64486   0.67512   0.68973   0.74143
 Alpha virt. eigenvalues --    0.76822   0.92716   1.02826   1.11561   1.22193
 Alpha virt. eigenvalues --    1.34564   1.37783   1.46134   1.49187   1.64377
 Alpha virt. eigenvalues --    1.65524   1.70144   1.78485   1.84874   2.07766
 Alpha virt. eigenvalues --    2.10384   2.17977   2.24274   2.33669   2.39112
 Alpha virt. eigenvalues --    2.42379   2.47184   2.66494   2.85270   3.02328
 Alpha virt. eigenvalues --    3.18557   3.49590   3.51291   3.63125   3.88206
 Alpha virt. eigenvalues --    3.90359   3.91001   4.08912   4.27892   4.37149
 Alpha virt. eigenvalues --    5.02658  34.96312  35.47384  36.18498
  Beta  occ. eigenvalues --  -14.57289 -14.46974 -14.44855  -1.17356  -1.00547
  Beta  occ. eigenvalues --   -0.65119  -0.54757  -0.54536  -0.47429  -0.36014
  Beta  occ. eigenvalues --   -0.30920
  Beta virt. eigenvalues --   -0.06197  -0.02497   0.02061   0.04988   0.23096
  Beta virt. eigenvalues --    0.36539   0.40258   0.41876   0.45724   0.50185
  Beta virt. eigenvalues --    0.53741   0.60663   0.65052   0.67780   0.68996
  Beta virt. eigenvalues --    0.74442   0.77574   0.93142   1.03562   1.12068
  Beta virt. eigenvalues --    1.22987   1.40856   1.45658   1.47347   1.51226
  Beta virt. eigenvalues --    1.64902   1.66099   1.70652   1.83622   1.87194
  Beta virt. eigenvalues --    2.08295   2.11014   2.20939   2.25388   2.37984
  Beta virt. eigenvalues --    2.39460   2.47286   2.65659   2.69598   2.85258
  Beta virt. eigenvalues --    3.02822   3.18776   3.49454   3.51474   3.63387
  Beta virt. eigenvalues --    3.88093   3.90712   3.91551   4.08822   4.27750
  Beta virt. eigenvalues --    4.37221   5.02616  34.96512  35.47589  36.18673
     Alpha Molecular Orbital Coefficients:
                           1         2         3         4         5
                           O         O         O         O         O
     Eigenvalues --   -14.57297 -14.47173 -14.44988  -1.17704  -1.00920
   1 1   N  1S          0.55747  -0.00324  -0.00110  -0.10559  -0.00652
   2        2S          0.46460  -0.00205  -0.00064  -0.16376  -0.01063
   3        2PX        -0.00022   0.00104  -0.00078   0.03240  -0.17980
   4        2PY         0.00018   0.00017  -0.00003   0.01344  -0.02187
   5        2PZ        -0.00016   0.00002  -0.00007  -0.00341  -0.00748
   6        3S          0.01840  -0.00286  -0.00093   0.46491   0.03573
   7        3PX         0.00235  -0.00580   0.00290   0.03230  -0.23778
   8        3PY         0.00082  -0.00102   0.00009   0.01588  -0.02834
   9        3PZ        -0.00016  -0.00009   0.00027  -0.00481  -0.00997
  10        4S         -0.00328   0.00348   0.00189   0.21146   0.02763
  11        4PX         0.00048   0.00792  -0.00823  -0.00556  -0.06942
  12        4PY        -0.00013   0.00102  -0.00046   0.00257  -0.01133
  13        4PZ         0.00008   0.00035  -0.00042  -0.00134  -0.00164
  14        5D 0       -0.00240   0.00138   0.00071  -0.01208  -0.00130
  15        5D+1        0.00040  -0.00001  -0.00036   0.00189   0.00124
  16        5D-1        0.00004  -0.00001   0.00001  -0.00068  -0.00015
  17        5D+2        0.00402  -0.00219  -0.00130   0.01969   0.00272
  18        5D-2        0.00102  -0.00094   0.00002   0.00518  -0.00182
  19 2   N  1S          0.00302   0.55744   0.00047  -0.06745   0.06516
  20        2S          0.00329   0.46513   0.00041  -0.10378   0.10151
  21        2PX        -0.00079  -0.00179  -0.00008  -0.08207   0.06909
  22        2PY        -0.00018  -0.00037   0.00003  -0.01554   0.01549
  23        2PZ         0.00001  -0.00001  -0.00003  -0.00100  -0.00024
  24        3S         -0.00323   0.01696  -0.00002   0.28925  -0.28660
  25        3PX         0.00560  -0.00413   0.00010  -0.10833   0.08952
  26        3PY         0.00121  -0.00079  -0.00014  -0.02007   0.02094
  27        3PZ        -0.00002  -0.00004   0.00011  -0.00154  -0.00072
  28        4S         -0.00108  -0.01197   0.00551   0.11336  -0.13680
  29        4PX        -0.00026   0.00405  -0.00181  -0.02232   0.02453
  30        4PY         0.00002   0.00096  -0.00063  -0.00528   0.00595
  31        4PZ        -0.00003  -0.00006   0.00000   0.00023  -0.00035
  32        5D 0        0.00159  -0.00127   0.00004  -0.00875   0.00793
  33        5D+1        0.00004   0.00006  -0.00008   0.00043   0.00032
  34        5D-1        0.00001   0.00001  -0.00003  -0.00020   0.00026
  35        5D+2       -0.00248   0.00202  -0.00013   0.01350  -0.01149
  36        5D-2       -0.00116   0.00078   0.00014   0.00529  -0.00617
  37 3   N  1S          0.00102  -0.00047   0.55758  -0.04616  -0.08496
  38        2S          0.00122  -0.00038   0.46505  -0.07105  -0.13215
  39        2PX         0.00090   0.00013   0.00139   0.04752   0.06038
  40        2PY         0.00009   0.00006  -0.00069  -0.00332  -0.01444
  41        2PZ         0.00001  -0.00003   0.00094   0.01080   0.02425
  42        3S         -0.00104  -0.00003   0.01675   0.19722   0.37055
  43        3PX        -0.00384  -0.00028   0.00064   0.06930   0.09472
  44        3PY        -0.00043  -0.00019  -0.00071  -0.00372  -0.02101
  45        3PZ         0.00001   0.00009   0.00107   0.01471   0.03529
  46        4S          0.00035   0.00403  -0.01252   0.07484   0.20603
  47        4PX         0.00094   0.00182  -0.00341   0.00190   0.02223
  48        4PY         0.00008   0.00003  -0.00010  -0.00525  -0.00658
  49        4PZ         0.00003   0.00012  -0.00102   0.00717   0.01463
  50        5D 0        0.00105   0.00007  -0.00051  -0.00469  -0.00758
  51        5D+1       -0.00069   0.00006  -0.00022   0.00244   0.00488
  52        5D-1       -0.00023   0.00000  -0.00053  -0.00151  -0.00367
  53        5D+2       -0.00193  -0.00011   0.00081   0.00836   0.01382
  54        5D-2        0.00029  -0.00016   0.00050   0.00020  -0.00128
  55 4   H  1S         -0.00031  -0.00002  -0.00006   0.02109   0.05570
  56        2S         -0.00076   0.00002  -0.00143   0.01884   0.05291
  57        3S          0.00072   0.00045   0.00139  -0.01180  -0.00933
  58        4PX        -0.00018   0.00011  -0.00075   0.00453   0.00910
  59        4PY        -0.00051   0.00001  -0.00130   0.00339   0.00894
  60        4PZ         0.00049   0.00000   0.00134  -0.00293  -0.00833
  61 5   H  1S          0.00007   0.00003  -0.00012   0.00119   0.00429
  62        2S         -0.00020  -0.00012   0.00042   0.00337   0.00395
  63        3S          0.00023   0.00014   0.00019  -0.00265  -0.00027
  64        4PX        -0.00000  -0.00001   0.00028   0.00011  -0.00033
  65        4PY        -0.00001  -0.00001  -0.00029  -0.00003  -0.00016
  66        4PZ        -0.00001  -0.00000  -0.00004  -0.00001   0.00002
                           6         7         8         9        10
                           O         O         O         O         O
     Eigenvalues --    -0.65250  -0.55571  -0.54664  -0.48025  -0.37892
   1 1   N  1S          0.04157   0.02398  -0.02005   0.02764   0.00693
   2        2S          0.06631   0.03872  -0.03230   0.04465   0.01138
   3        2PX         0.09500  -0.01090  -0.02751  -0.11970   0.02888
   4        2PY        -0.03378   0.21300   0.02260  -0.04512  -0.05959
   5        2PZ         0.05562  -0.00146   0.21594   0.02615   0.03644
   6        3S         -0.20629  -0.11922   0.09985  -0.14241  -0.03944
   7        3PX         0.13163  -0.01903  -0.04059  -0.16192   0.03770
   8        3PY        -0.05366   0.32817   0.03552  -0.06553  -0.09087
   9        3PZ         0.08560  -0.00151   0.33211   0.04017   0.05609
  10        4S         -0.21108  -0.13063   0.10765  -0.16604  -0.01803
  11        4PX         0.07345   0.00912  -0.03305  -0.12826   0.12292
  12        4PY        -0.03473   0.22836   0.01798  -0.05501  -0.06251
  13        4PZ         0.04952  -0.00810   0.23368   0.03461   0.04369
  14        5D 0       -0.00155  -0.00023  -0.00244  -0.00028   0.00168
  15        5D+1       -0.00588  -0.00099   0.00564   0.00395   0.01867
  16        5D-1        0.00110  -0.00140   0.00363   0.00111   0.00177
  17        5D+2        0.00193  -0.00717   0.00046   0.00215   0.00716
  18        5D-2        0.00602   0.00238  -0.00041  -0.00250  -0.03557
  19 2   N  1S         -0.03092  -0.02066   0.01882  -0.07528   0.00051
  20        2S         -0.04894  -0.03307   0.03006  -0.11987   0.00060
  21        2PX         0.00569  -0.00363  -0.02587   0.20907   0.02279
  22        2PY        -0.01960   0.12908   0.01280   0.02060  -0.13210
  23        2PZ         0.02161  -0.00053   0.13227   0.02594   0.06636
  24        3S          0.14229   0.09822  -0.08869   0.34057  -0.00066
  25        3PX         0.00993  -0.01070  -0.03518   0.28180   0.03544
  26        3PY        -0.03112   0.19897   0.02094   0.02452  -0.19854
  27        3PZ         0.03460  -0.00082   0.20477   0.03909   0.09948
  28        4S          0.13193   0.08854  -0.09625   0.58373  -0.08521
  29        4PX        -0.00096   0.00251  -0.02101   0.14462   0.06096
  30        4PY        -0.01116   0.10497   0.01151   0.00839  -0.15969
  31        4PZ         0.01260   0.00138   0.10779   0.02492   0.08563
  32        5D 0       -0.00025   0.00084  -0.00149   0.01286  -0.00101
  33        5D+1       -0.00718   0.00009  -0.03371  -0.00527  -0.01056
  34        5D-1       -0.00152  -0.00035  -0.00654  -0.00182  -0.00205
  35        5D+2       -0.00261   0.01097   0.00399  -0.02320  -0.00661
  36        5D-2        0.00616  -0.03138  -0.00336  -0.00474   0.01951
  37 3   N  1S         -0.04584  -0.02731   0.02625   0.00262  -0.02925
  38        2S         -0.07216  -0.04361   0.04185   0.00411  -0.04672
  39        2PX        -0.15343  -0.04346   0.03363   0.06798  -0.04678
  40        2PY        -0.07949   0.09773   0.02034  -0.00168   0.14915
  41        2PZ         0.06796   0.00283   0.09585   0.00406  -0.08332
  42        3S          0.19930   0.12699  -0.12223  -0.00738   0.13110
  43        3PX        -0.22098  -0.05848   0.04423   0.10062  -0.06522
  44        3PY        -0.11869   0.15195   0.03225  -0.00433   0.21727
  45        3PZ         0.10297   0.00682   0.14905   0.00705  -0.11767
  46        4S          0.25711   0.16788  -0.14705  -0.05548   0.31026
  47        4PX        -0.07583  -0.03527   0.02934   0.05652  -0.03642
  48        4PY        -0.05501   0.08575   0.02437   0.00179   0.19835
  49        4PZ         0.05469   0.01285   0.08319  -0.00194  -0.09096
  50        5D 0        0.01177   0.00303   0.00869  -0.00292  -0.00094
  51        5D+1       -0.00449  -0.00300   0.02707   0.00816  -0.00547
  52        5D-1       -0.01283   0.00588  -0.00071   0.00103   0.01231
  53        5D+2       -0.01986   0.00000   0.00118   0.00697   0.00045
  54        5D-2        0.00117   0.02637   0.00107  -0.00668   0.00472
  55 4   H  1S          0.16020   0.00051  -0.00918  -0.03043  -0.08632
  56        2S          0.19599  -0.00966  -0.00589  -0.04032  -0.15072
  57        3S          0.03695   0.00079  -0.00478  -0.01548  -0.04864
  58        4PX         0.00524  -0.00651   0.00428   0.00333  -0.01608
  59        4PY         0.01456   0.00571   0.00237  -0.00203   0.00036
  60        4PZ        -0.01397   0.00192   0.00759   0.00189   0.00462
  61 5   H  1S          0.01200   0.02859  -0.00440  -0.01120   0.11141
  62        2S          0.01639   0.04079  -0.00778  -0.02052   0.18102
  63        3S          0.00944   0.02358  -0.00496  -0.00984   0.15632
  64        4PX        -0.00040   0.00159   0.00013  -0.00046   0.00063
  65        4PY        -0.00220  -0.00114   0.00094   0.00109  -0.00162
  66        4PZ         0.00032  -0.00001   0.00127   0.00012  -0.00061
                          11        12        13        14        15
                           O         O         V         V         V
     Eigenvalues --    -0.32062  -0.23662  -0.03581   0.00902   0.03800
   1 1   N  1S         -0.00588  -0.00766   0.00449   0.00208  -0.00900
   2        2S         -0.00965  -0.01251   0.00674   0.00338  -0.01456
   3        2PX        -0.01832  -0.01440  -0.01471  -0.02865  -0.01032
   4        2PY        -0.00759  -0.04798   0.14750   0.15993  -0.03621
   5        2PZ        -0.02427  -0.01163  -0.15560   0.16912   0.02327
   6        3S          0.03245   0.03678  -0.00151  -0.00880   0.02602
   7        3PX        -0.02653  -0.01810  -0.03874  -0.04660  -0.04606
   8        3PY        -0.00950  -0.07387   0.22624   0.24765  -0.05568
   9        3PZ        -0.03591  -0.01848  -0.24126   0.26197   0.03479
  10        4S          0.01999   0.05609  -0.20039  -0.05033   0.14784
  11        4PX        -0.00367  -0.03105   0.13668  -0.06094   0.31747
  12        4PY        -0.01147  -0.09091   0.33976   0.38516  -0.07892
  13        4PZ        -0.02623  -0.02130  -0.33481   0.40891   0.08955
  14        5D 0       -0.00368   0.00186  -0.00085   0.00074   0.01357
  15        5D+1       -0.04720   0.00765   0.02138  -0.00713   0.00203
  16        5D-1       -0.00664   0.00297   0.00216  -0.00191  -0.00505
  17        5D+2        0.00527  -0.01209   0.00822   0.00494  -0.02141
  18        5D-2       -0.01861   0.03289  -0.01534  -0.00354  -0.01163
  19 2   N  1S          0.00024   0.00198  -0.00218  -0.00083   0.01315
  20        2S          0.00045   0.00345  -0.00392  -0.00139   0.02190
  21        2PX         0.02508  -0.01070   0.01334   0.02177   0.03743
  22        2PY        -0.06237   0.12368  -0.14453  -0.13125   0.04224
  23        2PZ        -0.15798   0.02522   0.15666  -0.14253  -0.02669
  24        3S         -0.00300  -0.01553   0.01819   0.00536  -0.09311
  25        3PX         0.03600  -0.01578   0.01582   0.03036   0.05512
  26        3PY        -0.09316   0.18207  -0.20798  -0.18627   0.06385
  27        3PZ        -0.23544   0.03655   0.22379  -0.20144  -0.04052
  28        4S          0.00456   0.02581  -0.10131   0.00201  -0.28955
  29        4PX         0.03182  -0.03800   0.08254   0.06161   0.14013
  30        4PY        -0.08906   0.21235  -0.32882  -0.34379   0.12572
  31        4PZ        -0.22768   0.04524   0.37181  -0.37550  -0.06976
  32        5D 0        0.00067   0.00087  -0.00108   0.00016  -0.00110
  33        5D+1        0.01870  -0.00134   0.00563  -0.00941  -0.00049
  34        5D-1        0.00387  -0.00021   0.00110  -0.00205  -0.00107
  35        5D+2       -0.00400   0.00146   0.00410   0.00403   0.00179
  36        5D-2        0.00608  -0.00818  -0.00479  -0.00883   0.00170
  37 3   N  1S          0.02459   0.02934   0.02103   0.00428   0.03572
  38        2S          0.03947   0.04722   0.03332   0.00681   0.05640
  39        2PX         0.01987   0.03635   0.07512   0.02972  -0.00549
  40        2PY         0.07807  -0.11787  -0.04789  -0.12008   0.11169
  41        2PZ         0.19820  -0.03132   0.04187  -0.11496  -0.08093
  42        3S         -0.11880  -0.14579  -0.08189  -0.01717  -0.15247
  43        3PX         0.02556   0.04403   0.10708   0.04072  -0.05321
  44        3PY         0.11670  -0.17203  -0.06583  -0.16875   0.14134
  45        3PZ         0.29044  -0.05122   0.05074  -0.15891  -0.10229
  46        4S         -0.16417  -0.24706  -0.24128  -0.07624  -0.56832
  47        4PX         0.03209   0.06588   0.24135   0.08119   0.26614
  48        4PY         0.13528  -0.20409  -0.08406  -0.31251   0.36782
  49        4PZ         0.31756  -0.04886   0.09448  -0.31564  -0.25948
  50        5D 0        0.01265  -0.00975  -0.00317  -0.00675  -0.00042
  51        5D+1        0.01474  -0.00194  -0.01715   0.01591  -0.00534
  52        5D-1       -0.00338  -0.00387  -0.00671   0.00100   0.00152
  53        5D+2        0.00376  -0.00313   0.00044  -0.00696   0.00378
  54        5D-2        0.00427  -0.02170   0.01608   0.01060   0.00861
  55 4   H  1S          0.02970   0.00699   0.08955  -0.00071   0.04208
  56        2S          0.04363   0.00482   0.19732  -0.00741  -0.05725
  57        3S          0.01852   0.02724   0.34254   0.08220   1.55323
  58        4PX         0.00546   0.00473  -0.00187   0.00343  -0.01848
  59        4PY         0.01160  -0.00963  -0.00407  -0.01759  -0.01594
  60        4PZ         0.01576  -0.00406   0.00205  -0.01553   0.01769
  61 5   H  1S          0.07886   0.20409   0.02811   0.02908  -0.03269
  62        2S          0.12728   0.37994   0.05562   0.05082  -0.07175
  63        3S          0.11980   0.43725   0.08237   0.16722  -0.18706
  64        4PX        -0.00107  -0.00437  -0.00246  -0.00144  -0.00036
  65        4PY         0.00260   0.00533   0.00680   0.00691  -0.00430
  66        4PZ         0.00427   0.00262   0.00424  -0.00183  -0.00051
                          16        17        18        19        20
                           V         V         V         V         V
     Eigenvalues --     0.22701   0.25743   0.36758   0.42033   0.45503
   1 1   N  1S         -0.06487   0.02870  -0.00058   0.00893   0.04858
   2        2S         -0.10525   0.04804   0.00125   0.01941   0.09177
   3        2PX        -0.07162   0.03669   0.03767   0.15026  -0.05580
   4        2PY         0.02706  -0.04390  -0.04531   0.04775   0.02971
   5        2PZ        -0.02986   0.00184   0.05294  -0.02429  -0.02433
   6        3S          0.24713  -0.16459  -0.07391  -0.21902  -0.66394
   7        3PX        -0.11659   0.03676   0.09932   0.23536  -0.04889
   8        3PY         0.04052  -0.08258  -0.08340   0.09810   0.10338
   9        3PZ        -0.04132  -0.00366   0.08922  -0.08163  -0.06442
  10        4S          2.57524  -0.89491   0.27415   1.28753  -1.86342
  11        4PX        -0.42038   0.40799   0.06078   5.09811  -1.63457
  12        4PY         0.20476  -0.01384  -0.24474   0.63041  -0.43393
  13        4PZ        -0.17294   0.10123   0.29437   0.27277   0.07368
  14        5D 0        0.03058  -0.01285   0.00771   0.00619   0.00503
  15        5D+1       -0.00893  -0.00052   0.02082  -0.00572  -0.00939
  16        5D-1        0.00123   0.00061  -0.02110   0.00867  -0.00075
  17        5D+2       -0.05273   0.01810  -0.00784  -0.01225  -0.01102
  18        5D-2       -0.01449  -0.00628  -0.01647   0.00517   0.00789
  19 2   N  1S          0.04409  -0.01007   0.01207   0.04538   0.00369
  20        2S          0.07492  -0.01629   0.02124   0.07719   0.01737
  21        2PX         0.14441  -0.04373   0.02963   0.01628   0.06538
  22        2PY        -0.00099  -0.00673   0.00351  -0.00574   0.00627
  23        2PZ         0.01989  -0.00191  -0.00131  -0.00274   0.00958
  24        3S         -0.30298   0.04581  -0.09217  -0.24768  -0.33429
  25        3PX         0.21753  -0.04771   0.05619   0.03108   0.33376
  26        3PY         0.00088  -0.03438  -0.03815  -0.01559   0.07614
  27        3PZ         0.02686  -0.00018   0.04186  -0.02085   0.01441
  28        4S         -0.57974   0.04278  -0.14043  -4.95678   2.77090
  29        4PX         0.58086  -0.17545   0.12777   2.72716  -2.11450
  30        4PY        -0.02110   0.07304   0.23066   0.64920  -0.44719
  31        4PZ         0.09230  -0.03886  -0.21640  -0.00031  -0.02528
  32        5D 0       -0.00102  -0.00062  -0.00037   0.00229   0.02009
  33        5D+1        0.00389   0.00033  -0.01074   0.00789   0.00843
  34        5D-1        0.00158   0.00051  -0.00482   0.00229   0.00036
  35        5D+2        0.00410  -0.00569  -0.00474  -0.00048  -0.02648
  36        5D-2       -0.00449   0.00651   0.00997  -0.00792  -0.02732
  37 3   N  1S          0.04552  -0.01696   0.02370  -0.01711   0.01037
  38        2S          0.07542  -0.02851   0.04222  -0.02163   0.02373
  39        2PX        -0.20289   0.05785   0.03370  -0.05078  -0.08440
  40        2PY        -0.02993   0.02120   0.07579  -0.03577  -0.03990
  41        2PZ         0.00874   0.01548  -0.09531   0.00360   0.02689
  42        3S         -0.23709   0.11159  -0.17180  -0.15406  -0.21025
  43        3PX        -0.30838   0.05869   0.02044  -0.24787  -0.38729
  44        3PY        -0.02224   0.06720   0.14049  -0.08542  -0.11488
  45        3PZ         0.00790   0.02871  -0.20666  -0.00151   0.07028
  46        4S         -1.21395   0.37854  -0.46570   4.35377  -0.40234
  47        4PX        -1.10475   0.66404   0.61128   2.52509   0.38917
  48        4PY        -0.19137  -0.16647   0.73606  -0.37331   0.24837
  49        4PZ        -0.06440  -0.01887  -0.62254   0.67277  -0.16001
  50        5D 0       -0.00552   0.01505  -0.00040   0.00923   0.01475
  51        5D+1       -0.00665   0.00677  -0.00716  -0.01501  -0.00566
  52        5D-1        0.00280  -0.00150  -0.01375  -0.00660   0.00468
  53        5D+2        0.01504  -0.00284  -0.00839  -0.02586  -0.03182
  54        5D-2        0.01555   0.00008   0.00589   0.00804   0.00043
  55 4   H  1S          0.01434  -0.01138   0.12724  -0.02777  -0.01393
  56        2S          0.16347   0.06398   1.96586  -0.81567  -0.02854
  57        3S         -0.59908  -0.13149  -0.90619   0.35925   0.04280
  58        4PX        -0.02724   0.00179   0.03161  -0.00837   0.03318
  59        4PY         0.02031   0.02564  -0.00476  -0.02946   0.00334
  60        4PZ        -0.01459   0.00885   0.00195   0.02297  -0.00652
  61 5   H  1S         -0.03699  -0.11219   0.01641  -0.00036   0.00665
  62        2S         -0.40070  -1.22359   0.08588   0.09188   0.11545
  63        3S          0.51834   1.67140   0.00659  -0.00472  -0.14781
  64        4PX        -0.00879   0.00489   0.02272   0.04100   0.03092
  65        4PY        -0.00274   0.00914   0.02919   0.00353   0.00178
  66        4PZ        -0.00376  -0.00002  -0.02540   0.02497  -0.00392
                          21        22        23        24        25
                           V         V         V         V         V
     Eigenvalues --     0.50171   0.52650   0.60491   0.64486   0.67512
   1 1   N  1S         -0.00607   0.00020  -0.01685  -0.03008   0.04046
   2        2S         -0.01159   0.00057  -0.03291  -0.05854   0.07840
   3        2PX        -0.01784   0.01164  -0.03576   0.01205  -0.10719
   4        2PY        -0.04693  -0.10556  -0.00880   0.06946   0.04754
   5        2PZ        -0.10627   0.03162   0.02286   0.00786   0.01983
   6        3S          0.07425  -0.00269   0.21917   0.37143  -0.49547
   7        3PX        -0.01815   0.03634  -0.08596   0.18725  -0.51236
   8        3PY        -0.17789  -0.44550  -0.03260   0.24760   0.16584
   9        3PZ        -0.43261   0.14477   0.09382   0.04245   0.04980
  10        4S         -0.30051  -0.11325  -0.76586  -0.76472   0.45537
  11        4PX        -0.32268   0.30005   1.12540   0.17988   1.52809
  12        4PY         0.18952   0.67890   0.28134  -0.35539  -0.35858
  13        4PZ         0.51750  -0.22075  -0.29408  -0.14696  -0.16539
  14        5D 0        0.00810   0.00680   0.01131  -0.00024  -0.00451
  15        5D+1       -0.00391   0.00182   0.06619  -0.01438   0.01919
  16        5D-1       -0.00564   0.00879   0.02216   0.00553   0.00405
  17        5D+2        0.00074   0.00728  -0.01560  -0.00135   0.01296
  18        5D-2       -0.00328  -0.01732   0.00452  -0.04758  -0.04773
  19 2   N  1S         -0.00677   0.00321  -0.01586  -0.04143   0.05149
  20        2S         -0.01200   0.00599  -0.03021  -0.07998   0.10074
  21        2PX         0.01795   0.03001   0.02420   0.11948  -0.12787
  22        2PY        -0.04014  -0.15052   0.03065  -0.10204  -0.11042
  23        2PZ        -0.12601   0.05401   0.13160  -0.01787  -0.00356
  24        3S          0.04686  -0.04433   0.17897   0.57341  -0.78291
  25        3PX         0.06544   0.10914   0.10101   0.39343  -0.33877
  26        3PY        -0.14614  -0.53598   0.11898  -0.35358  -0.37561
  27        3PZ        -0.45562   0.18706   0.45873  -0.07210  -0.01035
  28        4S          0.36754  -0.23540  -0.77061  -0.55954  -0.11475
  29        4PX        -0.33569  -0.05634   0.03648  -0.34612   0.26189
  30        4PY         0.09011   0.62081  -0.17489   0.71475   0.76888
  31        4PZ         0.49849  -0.19861  -0.61956   0.17495   0.05438
  32        5D 0       -0.00031  -0.00001  -0.00282  -0.00289   0.01188
  33        5D+1        0.03374  -0.01119  -0.02492   0.00487  -0.00476
  34        5D-1        0.00739  -0.00212  -0.00100   0.00346   0.00144
  35        5D+2       -0.00469  -0.01364   0.00374   0.00302  -0.02521
  36        5D-2        0.01245   0.03619  -0.00516   0.01194   0.00244
  37 3   N  1S         -0.00488   0.00490  -0.01386   0.00597  -0.01358
  38        2S         -0.00954   0.00980  -0.02473   0.01217  -0.02501
  39        2PX        -0.01213  -0.00062  -0.05348  -0.06482   0.02389
  40        2PY        -0.03368  -0.08650  -0.00698   0.13503   0.07378
  41        2PZ        -0.12578   0.04205  -0.16454  -0.00017  -0.03925
  42        3S          0.06265  -0.07916   0.07548  -0.16261   0.17727
  43        3PX        -0.00593   0.00984  -0.11807  -0.16588   0.05416
  44        3PY        -0.13319  -0.28810  -0.03608   0.47706   0.24510
  45        3PZ        -0.43518   0.13103  -0.58140   0.03716  -0.13780
  46        4S         -0.10646   0.31969   1.34727   0.94189   0.82951
  47        4PX        -0.15406   0.13242   0.54659   0.46116  -0.00106
  48        4PY         0.10177   0.17206  -0.33470  -0.91750  -0.41967
  49        4PZ         0.44479  -0.00917   1.34859   0.25728   0.44975
  50        5D 0       -0.01252   0.00077  -0.01719  -0.01450  -0.00056
  51        5D+1       -0.02487   0.00969  -0.03634  -0.00319  -0.01679
  52        5D-1       -0.00324   0.00442  -0.00047  -0.00065  -0.00102
  53        5D+2        0.01075  -0.00204   0.02274   0.01122  -0.00561
  54        5D-2       -0.00299  -0.02055   0.01085   0.03815   0.02660
  55 4   H  1S          0.00711  -0.02504   0.00100   0.00870   0.01531
  56        2S          0.00590  -0.31428  -0.57295  -0.36587  -0.13135
  57        3S         -0.16189   0.50233  -0.02325  -0.25305  -0.28804
  58        4PX        -0.01848  -0.01173  -0.09935  -0.03769  -0.05137
  59        4PY        -0.01304   0.01424  -0.02059  -0.06982  -0.02679
  60        4PZ         0.00572  -0.02080   0.02711   0.02858   0.00422
  61 5   H  1S          0.00139   0.01176  -0.00987  -0.00097   0.02069
  62        2S         -0.02863   0.10929  -0.08450   0.13245   0.03868
  63        3S         -0.04816  -0.33083   0.12346   0.16468   0.07398
  64        4PX         0.00948   0.02973   0.00245  -0.02823  -0.06377
  65        4PY        -0.00102  -0.01241  -0.00854   0.01731   0.00674
  66        4PZ         0.02341   0.00219   0.08103   0.02251   0.02679
                          26        27        28        29        30
                           V         V         V         V         V
     Eigenvalues --     0.68973   0.74143   0.76822   0.92716   1.02826
   1 1   N  1S         -0.00615   0.00764  -0.04790  -0.00249  -0.00443
   2        2S         -0.01193   0.01535  -0.09356  -0.00580  -0.01137
   3        2PX        -0.02267  -0.01112  -0.11007  -0.29564  -0.14064
   4        2PY        -0.08305  -0.14443  -0.00881  -0.02437   0.01595
   5        2PZ         0.16677  -0.09335  -0.03301  -0.01285  -0.02755
   6        3S          0.07668  -0.11564   0.72080   0.14581   0.13808
   7        3PX        -0.12567  -0.03526  -0.47287  -0.28423  -0.45768
   8        3PY        -0.29003  -0.49544  -0.03667  -0.03789   0.06971
   9        3PZ         0.56434  -0.31579  -0.11993   0.01336  -0.11188
  10        4S         -0.55573  -0.14578  -1.58917  -1.69943   0.44059
  11        4PX         1.98946   0.93264   2.26698  -1.99007  10.73278
  12        4PY         1.02251   1.66118  -0.06075  -0.29320   0.85620
  13        4PZ        -1.45300   0.86693   0.67334  -0.13807   0.82133
  14        5D 0        0.00544   0.01204   0.01063  -0.00073  -0.00396
  15        5D+1       -0.01836   0.00118  -0.00127  -0.05636   0.03982
  16        5D-1        0.01825   0.01437  -0.02765  -0.00069   0.04391
  17        5D+2       -0.01495  -0.00655  -0.01837  -0.02698   0.00519
  18        5D-2       -0.00702  -0.01885  -0.01401   0.08666  -0.05788
  19 2   N  1S          0.00181   0.00970  -0.00836  -0.04238  -0.03131
  20        2S          0.00315   0.01931  -0.01895  -0.07794  -0.06420
  21        2PX        -0.00287  -0.03636  -0.00449  -0.22792  -0.00902
  22        2PY         0.05490   0.05088   0.00483  -0.06237   0.02229
  23        2PZ        -0.12657   0.04984   0.00196   0.00532  -0.01192
  24        3S         -0.04170  -0.16741   0.10476   0.42678   0.53545
  25        3PX         0.02431  -0.07832  -0.08516  -0.62082   0.25982
  26        3PY         0.19980   0.20465  -0.01732  -0.14196   0.07187
  27        3PZ        -0.44916   0.17813   0.02730  -0.00333  -0.00376
  28        4S         -1.38611  -0.64173  -1.17673   2.03058  -9.33636
  29        4PX         0.45035   0.37371   0.29343  -0.36547   3.23760
  30        4PY        -0.41082  -0.74274   0.23673  -0.15829   1.05163
  31        4PZ         1.16241  -0.55061  -0.26419   0.08873  -0.24247
  32        5D 0        0.00076   0.01149  -0.01961   0.03028   0.02337
  33        5D+1        0.00395  -0.00207  -0.00662   0.02257  -0.03999
  34        5D-1        0.00508   0.00272  -0.00961   0.00541  -0.00647
  35        5D+2       -0.00107  -0.00737   0.02643  -0.03505  -0.07075
  36        5D-2       -0.00129  -0.00628   0.02195  -0.05584   0.03793
  37 3   N  1S         -0.00758   0.00843  -0.05876   0.06551   0.05153
  38        2S         -0.01273   0.01763  -0.11580   0.12444   0.10415
  39        2PX        -0.02622  -0.00763  -0.17565  -0.19233   0.03736
  40        2PY         0.03082   0.13894  -0.03270   0.01009  -0.03741
  41        2PZ        -0.02300   0.03413   0.06120  -0.03752   0.02555
  42        3S         -0.00981  -0.19921   0.91805  -0.84940  -0.98415
  43        3PX        -0.09719  -0.05287  -0.35933  -0.50545   0.27790
  44        3PY         0.09175   0.48436  -0.03907  -0.03060  -0.17210
  45        3PZ        -0.05828   0.17946   0.14344  -0.02976   0.21874
  46        4S          1.84838   1.47755   0.13930  -0.04302   9.59267
  47        4PX         0.97169   0.46305   1.78535   0.28938   3.53052
  48        4PY        -0.65639  -1.55210   0.66216   0.10853  -0.35966
  49        4PZ         0.88836  -0.15718  -0.78938  -0.01083   0.71518
  50        5D 0       -0.00418  -0.00485  -0.04050  -0.03074  -0.04369
  51        5D+1       -0.00988  -0.00931   0.04194   0.03405  -0.06722
  52        5D-1        0.00046  -0.00054   0.01594  -0.01802   0.01753
  53        5D+2       -0.00107  -0.01369   0.07852   0.04423   0.02815
  54        5D-2        0.01733   0.03361  -0.00748  -0.04915   0.09455
  55 4   H  1S          0.03204   0.02483  -0.01515  -0.03300   0.10097
  56        2S         -0.50962  -0.44956   0.69919   0.01206  -0.87529
  57        3S          0.19205  -0.24304   0.90652  -0.10214  -0.03351
  58        4PX        -0.14700  -0.07508   0.02763   0.04472  -0.31990
  59        4PY        -0.02630  -0.09810   0.15003  -0.06775  -0.11307
  60        4PZ        -0.00777   0.01396  -0.17008   0.08585   0.02729
  61 5   H  1S          0.00033   0.00302   0.02910  -0.03451  -0.00675
  62        2S          0.09548   0.35193   0.08885  -0.03164  -0.16457
  63        3S          0.01538  -0.04044   0.05392   0.03009   0.11871
  64        4PX         0.01722   0.00924  -0.01569   0.11662   0.19875
  65        4PY         0.01353   0.04768   0.13829  -0.04765  -0.08556
  66        4PZ         0.06350   0.02400  -0.03785  -0.02113   0.09265
                          31        32        33        34        35
                           V         V         V         V         V
     Eigenvalues --     1.11561   1.22193   1.34564   1.37783   1.46134
   1 1   N  1S          0.07932  -0.01164  -0.00668  -0.00449  -0.00048
   2        2S          0.15239  -0.02264  -0.01387  -0.00966  -0.00138
   3        2PX        -0.11785  -0.00323  -0.05533  -0.03427   0.04003
   4        2PY        -0.04705   0.00728  -0.02868  -0.01727   0.00428
   5        2PZ         0.00673   0.00031  -0.00759   0.00585   0.00129
   6        3S         -1.33335   0.22210   0.09014   0.07613   0.06017
   7        3PX        -0.01463  -0.02662  -0.20055  -0.16843   0.19875
   8        3PY        -0.03492  -0.00878  -0.05968  -0.05311   0.02203
   9        3PZ         0.00091  -0.02736  -0.01648   0.01551  -0.05985
  10        4S          7.28126  -1.37718   0.47542   0.08301  -1.83914
  11        4PX         1.71765   0.93090   2.88037   4.03011  -3.98441
  12        4PY         0.59556   0.15472   0.45941   0.70076  -0.56608
  13        4PZ        -0.06997   0.26099   0.21297   0.03768   0.12193
  14        5D 0       -0.11006   0.13697   0.00765   0.00896   0.02063
  15        5D+1        0.02881   0.04889   0.00810  -0.00001   0.39787
  16        5D-1       -0.00547   0.02073  -0.05655   0.07153   0.08026
  17        5D+2        0.21285   0.00342   0.00953  -0.01012  -0.08205
  18        5D-2        0.05024   0.02932   0.00440   0.00984   0.11502
  19 2   N  1S         -0.07509   0.00765  -0.01002  -0.00526   0.00752
  20        2S         -0.14376   0.01417  -0.02102  -0.01192   0.01642
  21        2PX        -0.13751   0.01622  -0.00147   0.01683  -0.02224
  22        2PY        -0.02653  -0.00445   0.01051   0.00762  -0.03503
  23        2PZ        -0.00220  -0.01609  -0.00579  -0.00253  -0.06479
  24        3S          1.21034  -0.13022   0.18773   0.12077  -0.19128
  25        3PX         0.05384  -0.00028   0.03767   0.09326  -0.13445
  26        3PY         0.01631  -0.01097   0.02655   0.02759  -0.07274
  27        3PZ        -0.00230  -0.02252  -0.00506  -0.00630  -0.10946
  28        4S         -5.68042  -0.06301  -2.71775  -3.45427   4.13129
  29        4PX         2.63708  -0.07215   1.02116   1.24076  -1.54329
  30        4PY         0.44184  -0.00533   0.18791   0.23412  -0.35563
  31        4PZ         0.03759  -0.08005  -0.04158   0.01835  -0.07014
  32        5D 0        0.09044   0.01475   0.00962   0.00657  -0.01193
  33        5D+1       -0.00555  -0.04089  -0.01300  -0.00985  -0.25426
  34        5D-1       -0.00164  -0.00769  -0.02306   0.02243  -0.05189
  35        5D+2       -0.13862   0.03368  -0.01368  -0.00761   0.06302
  36        5D-2       -0.05750  -0.00084   0.00248  -0.00817  -0.09575
  37 3   N  1S         -0.02062   0.01715   0.00281   0.00533  -0.00037
  38        2S         -0.03998   0.03502   0.00396   0.01225  -0.00167
  39        2PX         0.00963  -0.00861  -0.04606  -0.01401  -0.00613
  40        2PY        -0.00480  -0.00026  -0.00246   0.00084   0.02256
  41        2PZ         0.00989  -0.00932   0.00657  -0.03193   0.08143
  42        3S          0.46586  -0.35443  -0.02798  -0.20331   0.05695
  43        3PX        -0.08431   0.04942  -0.06525   0.01268  -0.15004
  44        3PY         0.01465  -0.06863  -0.04244   0.02728   0.07284
  45        3PZ        -0.05953   0.03605   0.07795  -0.03928   0.09022
  46        4S         -1.83597   1.81674   1.99935   3.49803  -2.57001
  47        4PX        -0.87530   0.64639   0.95570   1.44545  -0.43642
  48        4PY         0.00250  -0.28067  -0.00513  -0.49634   0.11577
  49        4PZ        -0.14738  -0.08981  -0.03650   0.60807  -0.38776
  50        5D 0        0.04480   0.23816   0.02929  -0.01731  -0.14338
  51        5D+1       -0.03126  -0.09403  -0.00604  -0.01997  -0.35842
  52        5D-1        0.00616  -0.00531  -0.09649   0.04081   0.05992
  53        5D+2       -0.00968   0.16604  -0.01597  -0.02501  -0.00666
  54        5D-2        0.03795  -0.00832  -0.02137  -0.05132  -0.08152
  55 4   H  1S         -0.01333   0.03097   0.11708  -0.02006   0.09829
  56        2S          0.33869  -0.29682  -0.13841  -0.44250   0.12116
  57        3S         -0.04521   0.00485   0.11511   0.04151   0.06815
  58        4PX        -0.08339  -0.11778   0.28243   0.02198  -0.38480
  59        4PY         0.14702   0.53051  -0.14592  -0.03190   0.13896
  60        4PZ        -0.06771   0.58909   0.12274   0.11768  -0.23613
  61 5   H  1S          0.03536   0.06675  -0.00371  -0.01605  -0.02894
  62        2S          0.11165   0.03453  -0.02445   0.00694   0.06614
  63        3S         -0.12185  -0.07913   0.04578   0.08837   0.04321
  64        4PX        -0.15795  -0.16997  -0.63066  -0.31087  -0.04146
  65        4PY         0.13788   0.21382  -0.52408  -0.21621  -0.29607
  66        4PZ        -0.00769   0.07091   0.39524  -0.89757   0.00576
                          36        37        38        39        40
                           V         V         V         V         V
     Eigenvalues --     1.49187   1.64377   1.65524   1.70144   1.78485
   1 1   N  1S         -0.00932   0.00151  -0.00111   0.00042  -0.00443
   2        2S         -0.01863   0.00235  -0.00231  -0.00014  -0.00820
   3        2PX         0.01885   0.04091  -0.00295   0.05825  -0.01934
   4        2PY        -0.00617   0.02752  -0.01275   0.01999   0.02629
   5        2PZ        -0.00991  -0.03106  -0.01047  -0.01204  -0.01493
   6        3S          0.26841  -0.01900   0.02117   0.04939   0.09995
   7        3PX         0.19788   0.02273  -0.03763   0.02203  -0.05901
   8        3PY         0.07846   0.03860  -0.02774   0.01349   0.02118
   9        3PZ        -0.00535  -0.04712  -0.01548  -0.01368   0.00304
  10        4S         -3.43431  -0.18346   0.12821  -1.04542  -0.28824
  11        4PX        -3.93328  -0.34783   1.16211   1.60412   2.29113
  12        4PY        -0.91861  -0.28617   0.14475  -0.08436  -0.04227
  13        4PZ        -0.05929   0.26979   0.06048   0.40216  -0.12658
  14        5D 0       -0.01640  -0.01032  -0.61063  -0.01014   0.12518
  15        5D+1       -0.09653  -0.21640   0.05104  -0.22841   0.17543
  16        5D-1        0.02375   0.58931   0.02241  -0.39547   0.00852
  17        5D+2       -0.01599   0.02824  -0.37642  -0.04615  -0.01520
  18        5D-2       -0.36631   0.11988  -0.00653   0.26719   0.14592
  19 2   N  1S          0.00963   0.00378  -0.00030   0.00688   0.00135
  20        2S          0.01957   0.00878  -0.00105   0.01443   0.00166
  21        2PX        -0.05131   0.01036   0.01416   0.03099   0.02579
  22        2PY         0.05190  -0.01818  -0.01625  -0.03709  -0.00741
  23        2PZ         0.02002   0.01949  -0.00862   0.05256  -0.03606
  24        3S         -0.25569  -0.06811   0.01989  -0.11455  -0.00391
  25        3PX        -0.24232   0.04528   0.04058   0.09852   0.05249
  26        3PY         0.05274  -0.02275  -0.02638  -0.05078  -0.02149
  27        3PZ         0.03038   0.03158  -0.01373   0.08408  -0.05351
  28        4S          4.87543   0.41058  -1.01159  -0.80451  -1.67686
  29        4PX        -1.89317  -0.19072   0.35925   0.18175   0.54899
  30        4PY        -0.34324   0.04903   0.10442   0.19174   0.27242
  31        4PZ        -0.02429  -0.11009  -0.00591  -0.17169   0.10634
  32        5D 0       -0.05123   0.00716  -0.45841   0.00211   0.14560
  33        5D+1        0.06068  -0.02661  -0.04384   0.29264  -0.16696
  34        5D-1        0.02917   0.42790  -0.00586  -0.29254  -0.09069
  35        5D+2       -0.08616   0.05201  -0.21063   0.10018   0.08626
  36        5D-2        0.21770  -0.05949  -0.19022  -0.17038   0.01399
  37 3   N  1S          0.03020  -0.02067   0.00492  -0.00565   0.02508
  38        2S          0.06103  -0.04329   0.01023  -0.00836   0.05227
  39        2PX        -0.02544   0.00382   0.00418   0.03678  -0.00610
  40        2PY        -0.07239  -0.01526  -0.00415  -0.00859  -0.04032
  41        2PZ        -0.01728   0.01975  -0.00111   0.01775   0.05643
  42        3S         -0.52796   0.32892  -0.11957  -0.06985  -0.54637
  43        3PX        -0.07801  -0.09798   0.05815   0.04404   0.16426
  44        3PY        -0.17322  -0.14408  -0.05301  -0.03674  -0.15134
  45        3PZ        -0.04659   0.14146   0.00424   0.06514  -0.00820
  46        4S         -1.12281  -0.60347   1.06700   1.70940   2.62075
  47        4PX        -0.17860   0.22771   0.26249   1.26685   0.52371
  48        4PY         0.54399   0.43435   0.01038   0.16813   0.57540
  49        4PZ        -0.02355  -0.44575   0.06291  -0.12581   0.46743
  50        5D 0        0.02093   0.04642  -0.09790   0.02283  -0.09918
  51        5D+1        0.03027   0.11621   0.04333   0.11011   0.00349
  52        5D-1        0.08741   0.17716  -0.00388   0.09832   0.04714
  53        5D+2        0.01135  -0.01063  -0.06673   0.00724  -0.00634
  54        5D-2        0.33598  -0.13672  -0.02528  -0.14145  -0.17712
  55 4   H  1S          0.06354  -0.18910  -0.03404  -0.33662  -0.32720
  56        2S         -0.10443   0.70195  -0.05840   0.65311   0.21245
  57        3S          0.08303  -0.13198   0.00203  -0.20252  -0.10073
  58        4PX        -0.35976  -0.35668   0.02632  -0.58648   0.14879
  59        4PY         0.06460  -0.16929   0.07593   0.04707  -0.31383
  60        4PZ        -0.27960   0.10870   0.15732  -0.09579  -0.14667
  61 5   H  1S          0.01373  -0.01628  -0.03379  -0.03050  -0.45636
  62        2S         -0.04303   0.01776   0.04612   0.03191   0.38547
  63        3S         -0.13318   0.00926  -0.10567   0.05996  -0.45263
  64        4PX        -0.44425  -0.10302  -0.11021  -0.15958  -0.42077
  65        4PY         0.16059  -0.08127   0.17490  -0.13227   0.68202
  66        4PZ        -0.00742   0.13662   0.03726   0.02431   0.07289
                          41        42        43        44        45
                           V         V         V         V         V
     Eigenvalues --     1.84874   2.07766   2.10384   2.17977   2.24274
   1 1   N  1S         -0.00941  -0.00052   0.00359  -0.00191   0.00599
   2        2S         -0.01976  -0.00168   0.00847  -0.00307   0.01745
   3        2PX        -0.00911   0.00118   0.00201   0.01656   0.02126
   4        2PY        -0.03587  -0.04198   0.01410  -0.06454   0.15590
   5        2PZ         0.03783  -0.02266  -0.00579  -0.11983  -0.04569
   6        3S          0.20703   0.00875  -0.04256   0.07318  -0.15094
   7        3PX        -0.08617  -0.01097   0.03911  -0.00450   0.03931
   8        3PY        -0.02545  -0.01498  -0.01661  -0.01625   0.01011
   9        3PZ         0.02071  -0.01914   0.01863  -0.01546   0.00713
  10        4S         -0.85285   0.07710  -0.09482  -0.54090  -0.44491
  11        4PX         2.49949  -0.38960   0.93461   1.22328   1.29838
  12        4PY         0.05874  -0.06595   0.19784  -0.32775   0.52723
  13        4PZ         0.15741  -0.01863   0.08511  -0.36012   0.06267
  14        5D 0        0.03261  -0.42108  -0.09911   0.03412  -0.14561
  15        5D+1       -0.17865   0.00595   0.07015   0.03967  -0.09184
  16        5D-1        0.05677   0.10204  -0.52945   0.06270   0.21895
  17        5D+2       -0.09832  -0.24319  -0.08189  -0.05366   0.10669
  18        5D-2        0.25285  -0.08320  -0.02026   0.10664   0.08817
  19 2   N  1S          0.00043  -0.00143   0.00106   0.00070   0.00817
  20        2S          0.00029  -0.00295   0.00168   0.00085   0.02031
  21        2PX         0.02626  -0.00548   0.01276   0.01536  -0.00013
  22        2PY        -0.04525  -0.00691   0.01499  -0.01413   0.02116
  23        2PZ         0.03534  -0.00226  -0.00459  -0.02845   0.00064
  24        3S         -0.00052   0.02096  -0.00913  -0.00962  -0.17479
  25        3PX         0.05103  -0.02211   0.02315   0.01721   0.16692
  26        3PY        -0.06678  -0.01462   0.01077  -0.03712   0.06096
  27        3PZ         0.04976  -0.00690   0.00309  -0.03899   0.00303
  28        4S         -1.66581   0.28139  -0.73141  -0.69794  -0.83049
  29        4PX         0.52054  -0.09480   0.26345   0.17524   0.23109
  30        4PY         0.31084   0.00456   0.01129   0.28842  -0.18935
  31        4PZ        -0.09583   0.01380  -0.00799   0.24609   0.01088
  32        5D 0        0.07078   0.66579   0.14462  -0.00483  -0.02439
  33        5D+1        0.15283  -0.03186  -0.15293  -0.43668  -0.06282
  34        5D-1        0.28646  -0.17140   0.71838  -0.14221  -0.20568
  35        5D+2        0.13702   0.39114   0.05919   0.14035  -0.05969
  36        5D-2       -0.24192   0.04698   0.08808  -0.29952   0.50741
  37 3   N  1S          0.02896  -0.00603   0.00721   0.01420   0.02346
  38        2S          0.05745  -0.01443   0.02197   0.03388   0.05503
  39        2PX         0.07699  -0.00252  -0.01787  -0.00660   0.02354
  40        2PY         0.09753  -0.01568  -0.04944   0.02468   0.06007
  41        2PZ        -0.09104  -0.02990   0.06184   0.01493  -0.01561
  42        3S         -0.48076   0.13972  -0.26451  -0.36286  -0.52125
  43        3PX         0.24628  -0.04758   0.12762   0.16787   0.04601
  44        3PY         0.09791  -0.07518   0.17953   0.06896   0.20623
  45        3PZ        -0.13093   0.05228  -0.13942  -0.16133  -0.18231
  46        4S          2.73011  -0.35634   0.71673   1.23492   1.37521
  47        4PX         0.94112  -0.19973   0.51598   0.51735   0.92039
  48        4PY         0.00154  -0.05462  -0.10612   0.41212  -0.31245
  49        4PZ         0.43672  -0.09055  -0.05683   0.43628   0.11257
  50        5D 0        0.00016  -0.23342  -0.15269   0.38864  -0.27016
  51        5D+1       -0.04893   0.13756   0.04096   0.40869   0.20753
  52        5D-1       -0.35979   0.06145  -0.02197  -0.03773  -0.41167
  53        5D+2       -0.08317  -0.22026   0.06424   0.18891   0.10071
  54        5D-2        0.01688   0.17942  -0.02755   0.24470  -0.47997
  55 4   H  1S          0.64193   0.14799  -0.62829  -0.28450  -0.24884
  56        2S         -1.11543  -0.26418   1.04714   0.51380   0.49954
[...]
                     A                      A                      A
 Frequencies --   560.9049               627.4483              1165.6372
 Red. masses --     4.7554                 4.0347                 1.6006
 Frc consts  --     0.8815                 0.9359                 1.2813
 IR Inten    --    15.9669                12.4237               179.9816
  Atom  AN      X      Y      Z        X      Y      Z        X      Y      Z
     1   7     0.03  -0.24   0.37    -0.07   0.33   0.24     0.04  -0.05   0.07
     2   7    -0.03   0.13  -0.21     0.03  -0.17  -0.13     0.05   0.01  -0.01
     3   7     0.06   0.07  -0.16     0.00  -0.10  -0.07    -0.15   0.06  -0.08
     4   1    -0.55   0.30  -0.35     0.06  -0.51  -0.47     0.87  -0.31   0.32
     5   1    -0.30   0.22   0.25     0.41  -0.33  -0.06     0.00   0.03  -0.02
                     7                      8                      9
                     A                      A                      A
 Frequencies --  1300.3834              2297.9468              3515.4445
 Red. masses --     3.6793                12.2712                 1.0760
 Frc consts  --     3.6657                38.1784                 7.8346
 IR Inten    --     1.1936               424.6000                58.3714
  Atom  AN      X      Y      Z        X      Y      Z        X      Y      Z
     1   7     0.10   0.02  -0.02     0.73   0.13   0.00    -0.00   0.00  -0.00
     2   7     0.29   0.04   0.01    -0.53  -0.11  -0.00    -0.00  -0.00  -0.00
     3   7    -0.32  -0.07   0.02    -0.17  -0.02   0.00     0.04   0.05  -0.04
     4   1    -0.86   0.07  -0.18    -0.36   0.02  -0.08    -0.45  -0.65   0.61
     5   1    -0.05   0.10   0.02     0.01  -0.02  -0.01     0.00  -0.00  -0.00

 -------------------
 - Thermochemistry -
 -------------------
 Temperature   298.150 Kelvin.  Pressure   1.00000 Atm.
 Atom     1 has atomic number  7 and mass  14.00307
 Atom     2 has atomic number  7 and mass  14.00307
 Atom     3 has atomic number  7 and mass  14.00307
 Atom     4 has atomic number  1 and mass   1.00783
 Atom     5 has atomic number  1 and mass   1.00783
 Molecular mass:    44.02487 amu.
 Principal axes and moments of inertia in atomic units:
                           1         2         3
     Eigenvalues --    13.71912 163.07853 173.34519
           X            0.99871  -0.04434  -0.02489
           Y            0.04386   0.99885  -0.01948
           Z            0.02573   0.01837   0.99950
 This molecule is an asymmetric top.
 Rotational symmetry number  1.
 Rotational temperatures (Kelvin)      6.31336     0.53112     0.49966
 Rotational constants (GHZ):         131.54930    11.06670    10.41126
    1 imaginary frequencies ignored.
 Zero-point vibrational energy      59248.9 (Joules/Mol)
                                   14.16083 (Kcal/Mol)
 Warning -- explicit consideration of   3 degrees of freedom as
           vibrations may cause significant error
 Vibrational temperatures:    194.41   435.60   807.02   902.76  1677.09
          (Kelvin)           1870.96  3306.23  5057.93
 
 Zero-point correction=                           0.022567 (Hartree/Particle)
 Thermal correction to Energy=                    0.026844
 Thermal correction to Enthalpy=                  0.027789
 Thermal correction to Gibbs Free Energy=        -0.002864
 Sum of electronic and zero-point Energies=           -165.201681
 Sum of electronic and thermal Energies=              -165.197403
 Sum of electronic and thermal Enthalpies=            -165.196459
 Sum of electronic and thermal Free Energies=         -165.227112
 
                     E (Thermal)             CV                S
                      KCal/Mol        Cal/Mol-Kelvin    Cal/Mol-Kelvin
 Total                   16.845             12.018             64.514
 Electronic               0.000              0.000              1.377
 Translational            0.889              2.981             37.273
 Rotational               0.889              2.981             20.589
 Vibrational             15.068              6.057              5.276
 Vibration     1          0.613              1.918              2.872
 Vibration     2          0.694              1.668              1.402
 Vibration     3          0.917              1.116              0.522
                       Q            Log10(Q)             Ln(Q)
 Total Bot       0.207720D+02          1.317479          3.033608
 Total V=0       0.498226D+12         11.697427         26.934320
 Vib (Bot)       0.128317D-09         -9.891717        -22.776521
 Vib (Bot)    1  0.150676D+01          0.178043          0.409960
 Vib (Bot)    2  0.627176D+00         -0.202611         -0.466528
 Vib (Bot)    3  0.276848D+00         -0.557758         -1.284286
 Vib (V=0)       0.307773D+01          0.488230          1.124192
 Vib (V=0)    1  0.208755D+01          0.319637          0.735991
 Vib (V=0)    2  0.130209D+01          0.114641          0.263971
 Vib (V=0)    3  0.107153D+01          0.030004          0.069086
 Electronic      0.200000D+01          0.301030          0.693147
 Translational   0.114816D+08          7.060002         16.256256
 Rotational      0.704959D+04          3.848164          8.860725
 
                                                        RC, from TS reverse 8
                                                             IR Spectrum
 
     3                                           2                                    1   1                                          
     5                                           2                                    3   1                   6 5         3     1    
     1                                           9                                    0   6                   2 6         0     3    
     5                                           8                                    0   6                   7 1         3     5    
 
     X                                           X                                    X   X                   X X         X     X    
     X                                           X                                        X                               X          
     X                                           X                                        X                               X          
                                                 X                                        X                               X          
                                                 X                                        X                                          
                                                 X                                        X                                          
                                                 X                                        X                                          
                                                 X                                        X                                          
                                                 X                                                                                   
                                                 X                                                                                   
                                                 X                                                                                   
                                                 X                                                                                   
                                                 X                                                                                   
                                                 X                                                                                   
                                                 X                                                                                   
                                                 X                                                                                   
                                                 X                                                                                   
                                                 X                                                                                   
                                                 X                                                                                   
                                                 X                                                                                   
 
 ***** Axes restored to original set *****
 -------------------------------------------------------------------
 Center     Atomic                   Forces (Hartrees/Bohr)
 Number     Number              X              Y              Z
 -------------------------------------------------------------------
      1        7           0.002656064    0.003065440    0.000795010
      2        7          -0.001734422   -0.001684216   -0.000399022
      3        7          -0.003132621   -0.005209643    0.000711996
      4        1          -0.000502602   -0.000131420    0.000351919
      5        1           0.002713582    0.003959840   -0.001459903
 -------------------------------------------------------------------
 Cartesian Forces:  Max     0.005209643 RMS     0.002396069
 Z-matrix is all fixed cartesians, so copy forces.
 Force constants in Cartesian coordinates: 
                1             2             3             4             5 
      1  0.179626D+00
      2 -0.592790D-02  0.126919D+00
      3 -0.224463D+00  0.155721D-01  0.175110D+01
      4 -0.732936D-01  0.578608D-02  0.113272D+00  0.524608D-01
      5  0.809436D-02 -0.666681D-01 -0.322865D-01 -0.461878D-02  0.363194D-01
      6  0.136045D+00 -0.189551D-01 -0.114643D+01 -0.155294D+00  0.251584D-01
      7 -0.106397D+00  0.737856D-02  0.766390D-01  0.213021D-01 -0.725073D-02
      8  0.266216D-02 -0.398856D-01  0.181980D-01 -0.356198D-02  0.192656D-01
      9  0.112564D+00 -0.274092D-02 -0.542523D+00  0.411397D-01  0.863114D-02
     10  0.443358D-02  0.913395D-04  0.339937D-01 -0.170639D-02  0.359060D-04
     11  0.223029D-02 -0.126653D-01  0.459741D-03 -0.363598D-03  0.662133D-02
     12 -0.283798D-01  0.169941D-03 -0.624983D-01  0.205519D-02  0.445856D-03
     13 -0.436876D-02 -0.732808D-02  0.557885D-03  0.123714D-02  0.373925D-02
     14 -0.705891D-02 -0.770013D-02 -0.194332D-02  0.275828D-02  0.446180D-02
     15  0.423352D-02  0.595394D-02  0.345674D-03 -0.117297D-02 -0.194887D-02
                6             7             8             9            10 
      6  0.121490D+01
      7  0.780964D-02  0.349195D+00
      8 -0.149085D-01  0.114975D-02  0.165187D-01
      9 -0.776629D-01  0.879531D-01 -0.373678D-02  0.793305D+00
     10  0.555928D-02 -0.267405D+00 -0.462804D-02 -0.234574D+00  0.264005D+00
     11 -0.738275D-03 -0.354750D-02  0.647819D-03  0.490379D-02  0.215574D-02
     12  0.111659D-01 -0.169628D+00  0.294275D-02 -0.172857D+00  0.195761D+00
     13  0.588004D-02  0.330584D-02  0.437810D-02 -0.708280D-02  0.673427D-03
     14  0.944342D-02  0.226992D-02  0.345338D-02 -0.705723D-02  0.234506D-02
     15 -0.198171D-02 -0.277330D-02 -0.249549D-02 -0.262511D-03 -0.739686D-03
               11            12            13            14            15 
     11  0.426579D-02
     12 -0.281306D-02  0.223200D+00
     13 -0.474924D-03  0.192446D-03 -0.847649D-03
     14  0.113031D-02 -0.745483D-03 -0.314347D-03 -0.134537D-02
     15 -0.181220D-02  0.989398D-03  0.452424D-03  0.302617D-03  0.909147D-03
 Leave Link  716 at Tue Apr 29 14:53:28 2014, MaxMem=   65536000 cpu:       0.2
 (Enter /apps/gaussian/g09/l103.exe)

 GradGradGradGradGradGradGradGradGradGradGradGradGradGradGradGradGradGrad
 Berny optimization.
 Search for a local minimum.
 Step number   1 out of a maximum of    2
 All quantities printed in internal units (Hartrees-Bohrs-Radians)
 Second derivative matrix not updated -- analytic derivatives used.
 The second derivative matrix:
                          X1        Y1        Z1        X2        Y2
           X1           0.17963
           Y1          -0.00593   0.12692
           Z1          -0.22446   0.01557   1.75110
           X2          -0.07329   0.00579   0.11327   0.05246
           Y2           0.00809  -0.06667  -0.03229  -0.00462   0.03632
           Z2           0.13605  -0.01896  -1.14643  -0.15529   0.02516
           X3          -0.10640   0.00738   0.07664   0.02130  -0.00725
           Y3           0.00266  -0.03989   0.01820  -0.00356   0.01927
           Z3           0.11256  -0.00274  -0.54252   0.04114   0.00863
           X4           0.00443   0.00009   0.03399  -0.00171   0.00004
           Y4           0.00223  -0.01267   0.00046  -0.00036   0.00662
           Z4          -0.02838   0.00017  -0.06250   0.00206   0.00045
           X5          -0.00437  -0.00733   0.00056   0.00124   0.00374
           Y5          -0.00706  -0.00770  -0.00194   0.00276   0.00446
           Z5           0.00423   0.00595   0.00035  -0.00117  -0.00195
                          Z2        X3        Y3        Z3        X4
           Z2           1.21490
           X3           0.00781   0.34919
           Y3          -0.01491   0.00115   0.01652
           Z3          -0.07766   0.08795  -0.00374   0.79330
           X4           0.00556  -0.26741  -0.00463  -0.23457   0.26400
           Y4          -0.00074  -0.00355   0.00065   0.00490   0.00216
           Z4           0.01117  -0.16963   0.00294  -0.17286   0.19576
           X5           0.00588   0.00331   0.00438  -0.00708   0.00067
           Y5           0.00944   0.00227   0.00345  -0.00706   0.00235
           Z5          -0.00198  -0.00277  -0.00250  -0.00026  -0.00074
                          Y4        Z4        X5        Y5        Z5
           Y4           0.00427
           Z4          -0.00281   0.22320
           X5          -0.00047   0.00019  -0.00085
           Y5           0.00113  -0.00075  -0.00031  -0.00135
           Z5          -0.00181   0.00099   0.00045   0.00030   0.00091
     Eigenvalues ---   -0.00522   0.00273   0.00596   0.05589   0.17301
     Eigenvalues ---    0.22424   0.59660   1.06418   2.78073
 Eigenvalue     1 is  -5.22D-03 should be greater than     0.000000 Eigenvector:
                          Y5        X5        Z5        Y3        X4
   1                   -0.72232  -0.51959   0.28199   0.26344   0.17862
                          Z4        X3        X2        Z1        X1
   1                   -0.11528   0.09216   0.05778  -0.03413  -0.02106
 Quadratic step=1.334D+00 exceeds max=3.000D-01 adjusted using Lamda=-1.775D-02.
 Angle between NR and scaled steps=   6.63 degrees.
 Angle between quadratic step and forces=  37.61 degrees.
 Linear search not attempted -- first point.
 TrRot= -0.012954 -0.022963  0.006459 -1.293146 -0.007388  1.290753
 Variable       Old X    -DE/DX   Delta X   Delta X   Delta X     New X
                                 (Linear)    (Quad)   (Total)
    X1       -0.19428   0.00266   0.00000   0.02161   0.00805  -0.18623
    Y1       -0.10857   0.00307   0.00000   0.01998  -0.00121  -0.10978
    Z1        0.18247   0.00080   0.00000   0.00902   0.01575   0.19821
    X2       -0.45041  -0.00173   0.00000  -0.02134  -0.03908  -0.48949
    Y2       -0.04947  -0.00168   0.00000  -0.00195  -0.00743  -0.05690
    Z2        2.30191  -0.00040   0.00000  -0.00046   0.00534   2.30726
    X3        0.53206  -0.00313   0.00000  -0.02849  -0.03771   0.49435
    Y3       -0.03961  -0.00521   0.00000  -0.11521  -0.15381  -0.19342
    Z3       -2.03297   0.00071   0.00000   0.00133   0.00997  -2.02299
    X4       -0.95060  -0.00050   0.00000  -0.05338  -0.05981  -1.01040
    Y4       -0.04127  -0.00013   0.00000   0.03402  -0.00949  -0.05077
    Z4       -3.26161   0.00035   0.00000   0.03164   0.03618  -3.22543
    X5        2.51562   0.00271   0.00000   0.12807   0.12854   2.64416
    Y5        2.78753   0.00396   0.00000   0.22310   0.17195   2.95948
    Z5       -3.01051  -0.00146   0.00000  -0.05781  -0.06725  -3.07776
         Item               Value     Threshold  Converged?
 Maximum Force            0.005210     0.000450     NO 
 RMS     Force            0.002396     0.000300     NO 
 Maximum Displacement     0.171946     0.001800     NO 
 RMS     Displacement     0.074247     0.001200     NO 
 Predicted change in Energy=-2.346108D-03
 GradGradGradGradGradGradGradGradGradGradGradGradGradGradGradGradGradGrad

 Leave Link  103 at Tue Apr 29 14:53:28 2014, MaxMem=   65536000 cpu:       0.0
 (Enter /apps/gaussian/g09/l9999.exe)

 Test job not archived.
 1\1\GINC-ROMEO158\Freq\UM06\6-311G(d,p)\H2N3(2)\ROOT\29-Apr-2014\0\\#P
  M06 6-311G** FREQ # GFINPUT IOP(6/7=3) POP=FULL\\RC, from TS reverse 
 8\\0,2\N,-0.102809,-0.057453,0.096557\N,-0.238349,-0.026177,1.21812\N,
 0.281554,-0.020962,-1.075799\H,-0.503034,-0.021841,-1.725971\H,1.33121
 ,1.475099,-1.593092\\Version=AM64L-G09RevA.02\State=2-A\HF=-165.224247
 5\S2=0.755764\S2-1=0.\S2A=0.750003\RMSD=4.706e-09\RMSF=2.396e-03\ZeroP
 oint=0.0225667\Thermal=0.0268444\Dipole=-0.6716763,-0.1750147,-0.44437
 61\DipoleDeriv=0.0775904,-0.1039994,-0.3343489,-0.1449468,0.0814942,0.
 1120382,-0.6193481,-0.2406962,2.0160082,-0.127957,0.0144092,0.057817,0
 .0635253,-0.0767038,-0.0682929,0.4315057,0.253614,-1.0260684,-0.101532
 8,0.0113897,0.3953483,0.0386102,-0.3795316,-0.0415889,0.1876723,0.0184
 55,-1.2934219,0.1522188,-0.010868,-0.0766054,-0.0121806,0.3380833,0.02
 27339,0.0436012,0.0302027,0.3379,-0.0003194,0.0890685,-0.0422109,0.054
 9919,0.0366579,-0.0248904,-0.043431,-0.0615754,-0.0344179\Polar=18.396
 8065,6.3756503,17.3584795,-8.8791027,-6.2160301,42.8491928\PG=C01 [X(H
 2N3)]\NImag=1\\0.17962618,-0.00592790,0.12691908,-0.22446314,0.0155721
 1,1.75110050,-0.07329364,0.00578608,0.11327250,0.05246076,0.00809436,-
 0.06666813,-0.03228652,-0.00461878,0.03631935,0.13604542,-0.01895506,-
 1.14642515,-0.15529438,0.02515839,1.21490388,-0.10639736,0.00737856,0.
 07663902,0.02130213,-0.00725073,0.00780964,0.34919489,0.00266216,-0.03
 988558,0.01819799,-0.00356198,0.01926564,-0.01490847,0.00114975,0.0165
 1874,0.11256398,-0.00274092,-0.54252275,0.04113965,0.00863114,-0.07766
 292,0.08795307,-0.00373678,0.79330481,0.00443358,0.00009134,0.03399373
 ,-0.00170639,0.00003591,0.00555928,-0.26740549,-0.00462804,-0.23457391
 ,0.26400487,0.00223029,-0.01266525,0.00045974,-0.00036360,0.00662133,-
 0.00073827,-0.00354750,0.00064782,0.00490379,0.00215574,0.00426579,-0.
 02837978,0.00016994,-0.06249828,0.00205519,0.00044586,0.01116589,-0.16
 962843,0.00294275,-0.17285663,0.19576058,-0.00281306,0.22319962,-0.004
 36876,-0.00732808,0.00055789,0.00123714,0.00373925,0.00588004,0.003305
 84,0.00437810,-0.00708280,0.00067343,-0.00047492,0.00019245,-0.0008476
 5,-0.00705891,-0.00770013,-0.00194332,0.00275828,0.00446180,0.00944342
 ,0.00226992,0.00345338,-0.00705723,0.00234506,0.00113031,-0.00074548,-
 0.00031435,-0.00134537,0.00423352,0.00595394,0.00034567,-0.00117297,-0
 .00194887,-0.00198171,-0.00277330,-0.00249549,-0.00026251,-0.00073969,
 -0.00181220,0.00098940,0.00045242,0.00030262,0.00090915\\-0.00265606,-
 0.00306544,-0.00079501,0.00173442,0.00168422,0.00039902,0.00313262,0.0
 0520964,-0.00071200,0.00050260,0.00013142,-0.00035192,-0.00271358,-0.0
 0395984,0.00145990\\\@


 AND ALL THIS SCIENCE I DON'T UNDERSTAND
 IT'S JUST MY JOB FIVE DAYS A WEEK

                           -- ELTON JOHN, "ROCKET MAN"
 Job cpu time:  0 days  0 hours  1 minutes 52.4 seconds.
 File lengths (MBytes):  RWF=      9 Int=      0 D2E=      0 Chk=      1 Scr=      1
 Normal termination of Gaussian 09 at Tue Apr 29 14:53:28 2014.
************
total 320
drwxrwxr-x 2 henon henon   4096 29 avril 14:53 .
drwxrwxr-x 3 henon henon   4096 29 avril 14:53 ..
-rw-r--r-- 1 henon henon    377 29 avril 14:53 8Rfreq.inp
-rw-rw-r-- 1 henon henon 311298 29 avril 14:53 8Rfreq.out
Run on 12 cores
romeo158
************
