
 Primary working directories    : /scratch_p/cours/31332
 Secondary working directories  : /scratch_p/cours/31332
 Wavefunction directory         : /home/cours/wfu/
 Main file repository           : /scratch_p/cours/31332/

 SHA1      : c1281485f5ab15cf3ef7a6651587cbc70f616fdb
 NAME      : 2015.1.34
 ARCHNAME  : linux/x86_64
 FC        : /apps/intel/2018.3//compilers_and_libraries_2018.3.222/linux/mpi/intel64/bin/mpiifort
 BLASLIB   : -L/apps/intel/2018.3/mkl/lib/intel64 -lmkl_intel_ilp64 -lmkl_intel_thread -lmkl_core
 id        : vlad

 Nodes             nprocs
 romeo113.ro18.urca    1

 Using customized tuning parameters: mindgm=1; mindgv=20; mindgc=4; mindgr=1; noblas=0; minvec=7
 default implementation of scratch files=df  

 ***,optimisation
 memory,100,m;
 GPRINT,orbitals,civector,basis
 nosym
 ANGSTROM
 orient,mass
 geomtyp=xyz
 geometry={
   20
 O   0.074061   -0.042562    0.050017
 C   0.040178   -0.102538    1.369910
 O   0.982408   -0.188837    2.098140
 C  -1.347880   -0.051338    1.907500
 C  -2.437387    0.036110    1.137088
 C  -3.749616    0.074997    1.707797
 O  -4.753991    0.152896    0.970788
 C  -4.114368    0.017145    3.183304
 N  -5.550664    0.184531    3.218794
 C  -6.075519    1.447043    3.766672
 H  -6.382502    2.114571    2.966656
 H  -5.332043    1.949396    4.380354
 H  -6.939071    1.237768    4.388118
 H  -6.009115   -0.613468    3.628864
 H  -3.804606   -0.948354    3.582336
 H  -3.583423    0.789904    3.737049
 H  -1.388408   -0.094088    2.986490
 H  -2.367961    0.076456    0.060213
 H   0.994900   -0.080481   -0.239892
 H  -5.531054    0.159801    1.713736
 }
 
 basis=STO-3G;
 endbasis;
 
 {rhf;wf,76,1,0;}
 frequencies,analytical;
 put,molden,test.molden;

 Variables initialized (889), CPU time= 0.01 sec
 Commands  initialized (702), CPU time= 0.00 sec, 572 directives.
 Default parameters read. Elapsed time= 0.04 sec

 Checking input...
 Passed
1


                                         ***  PROGRAM SYSTEM MOLPRO  ***
                                       Copyright, TTI GmbH Stuttgart, 2015
                                    Version 2015.1 linked Aug  2 2018 18:31:50


 **********************************************************************************************************************************
 LABEL *   optimisation                                                                  
  64 bit serial version                                                                  DATE: 06-May-19          TIME: 10:44:54  
 **********************************************************************************************************************************

 SHA1:             c1281485f5ab15cf3ef7a6651587cbc70f616fdb
 **********************************************************************************************************************************


 Variable memory set to  100000000 words,  buffer space   230000 words

 SETTING GEOMTYP        =    XYZ
 ZSYMEL=NOSYM
 ZCENTRE=MASS
 ZUNIT=ANG
 
 SETTING BASIS          =    STO-3G


 Recomputing integrals since basis changed


 Using spherical harmonics

 Library entry O      S STO-3G               selected for orbital group  1
 Library entry O      P STO-3G               selected for orbital group  1
 Library entry C      S STO-3G               selected for orbital group  2
 Library entry C      P STO-3G               selected for orbital group  2
 Library entry N      S STO-3G               selected for orbital group  7
 Library entry N      P STO-3G               selected for orbital group  7
 Library entry H      S STO-3G               selected for orbital group  9


 PROGRAM * SEWARD (Integral evaluation for generally contracted gaussian basis sets)     Author: Roland Lindh, 1990

 Geometry written to block  1 of record 700

 Orientation using atomic masses  
 Molecule type: Asymmetric top
 Rotational constants:       0.4609477      0.5071832      3.5856512 GHz  (calculated with average atomic masses)

 Point group  C1  



 ATOMIC COORDINATES

 NR  ATOM    CHARGE       X              Y              Z

   1  O       8.00    0.501348159   -1.756303644    6.093543306
   2  C       6.00    0.094307342    0.573137950    5.289690327
   3  O       8.00   -0.068711563    2.420579877    6.574666587
   4  C       6.00   -0.160391528    0.717803282    2.490404930
   5  C       6.00   -0.010661500   -1.292289347    0.966294451
   6  C       6.00   -0.282929547   -1.045335916   -1.713740701
   7  O       8.00   -0.144104694   -2.946677515   -3.102775255
   8  C       6.00   -0.775547353    1.366108046   -3.198316826
   9  N       7.00   -0.711093167    0.602929866   -5.822220709
  10  C       6.00    1.441133697    1.467783040   -7.360940305
  11  H       1.00    2.812934723   -0.039963280   -7.602211200
  12  H       1.00    2.370383471    3.084488746   -6.499105791
  13  H       1.00    0.769002034    2.033023814   -9.212234446
  14  H       1.00   -2.369626273    0.938912939   -6.694862562
  15  H       1.00   -2.616063071    2.112295063   -2.654375087
  16  H       1.00    0.636740053    2.791765901   -2.743202484
  17  H       1.00   -0.483551223    2.615446296    1.808925871
  18  H       1.00    0.312383195   -3.169370628    1.698724372
  19  H       1.00    0.648303015   -1.733633983    7.913221235
  20  H       1.00   -0.424223810   -2.079152775   -4.918411845

 Bond lengths in Bohr (Angstrom)

  1- 2  2.497630873   1-19  1.825742974   2- 3  2.256275875   2- 4  2.814568938   4- 5  2.527014881
       ( 1.321689339)       ( 0.966141575)       ( 1.193969775)       ( 1.489405740)       ( 1.337238687)

  4-17  2.042032053   5- 6  2.705125561   5-18  2.040648329   6- 7  2.358768579   6- 8  2.874317406
       ( 1.080596826)       ( 1.431490800)       ( 1.079864591)       ( 1.248206578)       ( 1.521023268)

  7-20  2.031650098   8- 9  2.733398410   8-15  2.059166285   8-16  2.057713562   9-10  2.783470762
       ( 1.075102933)       ( 1.446452147)       ( 1.089663871)       ( 1.088895124)       ( 1.472949294)

  9-14  1.903974919  10-11  2.052644310  10-12  2.054264154  10-13  2.049035896
       ( 1.007540137)       ( 1.086212591)       ( 1.087069775)       ( 1.084303100)

 Bond angles

  1- 2- 3  126.30925200   1- 2- 4  112.50622571   2- 1-19  108.80292814   2- 4- 5  123.61469726

  2- 4-17  113.20356252   3- 2- 4  121.18451943   4- 5- 6  121.26201503   4- 5-18  121.64056573

  5- 4-17  123.18162351   5- 6- 7  120.25891483   5- 6- 8  127.26812931   6- 5-18  117.09697810

  6- 7-20  100.01794550   6- 8- 9  104.92315971   6- 8-15  108.70945141   6- 8-16  110.45052017

  7- 6- 8  112.46984200   8- 9-10  117.52545025   8- 9-14  111.72527379   9- 8-15  112.07546811

  9- 8-16  112.92800166   9-10-11  110.70135347   9-10-12  111.24605170   9-10-13  109.36203271

 10- 9-14  111.42891622  11-10-12  108.97064607  11-10-13  108.40008189  12-10-13  108.07911085

 15- 8-16  107.69621023


 BASIS DATA

   Nr Sym  Nuc  Type         Exponents   Contraction coefficients

    1.1 A     1  1s         130.709320     0.154329
                             23.808861     0.535328
                              6.443608     0.444635
    2.1 A     1  1s           5.033151    -0.099967
                              1.169596     0.399513
                              0.380389     0.700115
    3.1 A     1  2px          5.033151     0.155916
                              1.169596     0.607684
                              0.380389     0.391957
    4.1 A     1  2py          5.033151     0.155916
                              1.169596     0.607684
                              0.380389     0.391957
    5.1 A     1  2pz          5.033151     0.155916
                              1.169596     0.607684
                              0.380389     0.391957
    6.1 A     2  1s          71.616837     0.154329
                             13.045096     0.535328
                              3.530512     0.444635
    7.1 A     2  1s           2.941249    -0.099967
                              0.683483     0.399513
                              0.222290     0.700115
    8.1 A     2  2px          2.941249     0.155916
                              0.683483     0.607684
                              0.222290     0.391957
    9.1 A     2  2py          2.941249     0.155916
                              0.683483     0.607684
                              0.222290     0.391957
   10.1 A     2  2pz          2.941249     0.155916
                              0.683483     0.607684
                              0.222290     0.391957
   11.1 A     3  1s         130.709320     0.154329
                             23.808861     0.535328
                              6.443608     0.444635
   12.1 A     3  1s           5.033151    -0.099967
                              1.169596     0.399513
                              0.380389     0.700115
   13.1 A     3  2px          5.033151     0.155916
                              1.169596     0.607684
                              0.380389     0.391957
   14.1 A     3  2py          5.033151     0.155916
                              1.169596     0.607684
                              0.380389     0.391957
   15.1 A     3  2pz          5.033151     0.155916
                              1.169596     0.607684
                              0.380389     0.391957
   16.1 A     4  1s          71.616837     0.154329
                             13.045096     0.535328
                              3.530512     0.444635
   17.1 A     4  1s           2.941249    -0.099967
                              0.683483     0.399513
                              0.222290     0.700115
   18.1 A     4  2px          2.941249     0.155916
                              0.683483     0.607684
                              0.222290     0.391957
   19.1 A     4  2py          2.941249     0.155916
                              0.683483     0.607684
                              0.222290     0.391957
   20.1 A     4  2pz          2.941249     0.155916
                              0.683483     0.607684
                              0.222290     0.391957
   21.1 A     5  1s          71.616837     0.154329
                             13.045096     0.535328
                              3.530512     0.444635
   22.1 A     5  1s           2.941249    -0.099967
                              0.683483     0.399513
                              0.222290     0.700115
   23.1 A     5  2px          2.941249     0.155916
                              0.683483     0.607684
                              0.222290     0.391957
   24.1 A     5  2py          2.941249     0.155916
                              0.683483     0.607684
                              0.222290     0.391957
   25.1 A     5  2pz          2.941249     0.155916
                              0.683483     0.607684
                              0.222290     0.391957
   26.1 A     6  1s          71.616837     0.154329
                             13.045096     0.535328
                              3.530512     0.444635
   27.1 A     6  1s           2.941249    -0.099967
                              0.683483     0.399513
                              0.222290     0.700115
   28.1 A     6  2px          2.941249     0.155916
                              0.683483     0.607684
                              0.222290     0.391957
   29.1 A     6  2py          2.941249     0.155916
                              0.683483     0.607684
                              0.222290     0.391957
   30.1 A     6  2pz          2.941249     0.155916
                              0.683483     0.607684
                              0.222290     0.391957
   31.1 A     7  1s         130.709320     0.154329
                             23.808861     0.535328
                              6.443608     0.444635
   32.1 A     7  1s           5.033151    -0.099967
                              1.169596     0.399513
                              0.380389     0.700115
   33.1 A     7  2px          5.033151     0.155916
                              1.169596     0.607684
                              0.380389     0.391957
   34.1 A     7  2py          5.033151     0.155916
                              1.169596     0.607684
                              0.380389     0.391957
   35.1 A     7  2pz          5.033151     0.155916
                              1.169596     0.607684
                              0.380389     0.391957
   36.1 A     8  1s          71.616837     0.154329
                             13.045096     0.535328
                              3.530512     0.444635
   37.1 A     8  1s           2.941249    -0.099967
                              0.683483     0.399513
                              0.222290     0.700115
   38.1 A     8  2px          2.941249     0.155916
                              0.683483     0.607684
                              0.222290     0.391957
   39.1 A     8  2py          2.941249     0.155916
                              0.683483     0.607684
                              0.222290     0.391957
   40.1 A     8  2pz          2.941249     0.155916
                              0.683483     0.607684
                              0.222290     0.391957
   41.1 A     9  1s          99.106169     0.154329
                             18.052312     0.535328
                              4.885660     0.444635
   42.1 A     9  1s           3.780456    -0.099967
                              0.878497     0.399513
                              0.285714     0.700115
   43.1 A     9  2px          3.780456     0.155916
                              0.878497     0.607684
                              0.285714     0.391957
   44.1 A     9  2py          3.780456     0.155916
                              0.878497     0.607684
                              0.285714     0.391957
   45.1 A     9  2pz          3.780456     0.155916
                              0.878497     0.607684
                              0.285714     0.391957
   46.1 A    10  1s          71.616837     0.154329
                             13.045096     0.535328
                              3.530512     0.444635
   47.1 A    10  1s           2.941249    -0.099967
                              0.683483     0.399513
                              0.222290     0.700115
   48.1 A    10  2px          2.941249     0.155916
                              0.683483     0.607684
                              0.222290     0.391957
   49.1 A    10  2py          2.941249     0.155916
                              0.683483     0.607684
                              0.222290     0.391957
   50.1 A    10  2pz          2.941249     0.155916
                              0.683483     0.607684
                              0.222290     0.391957
   51.1 A    11  1s           3.425251     0.154329
                              0.623914     0.535328
                              0.168855     0.444635
   52.1 A    12  1s           3.425251     0.154329
                              0.623914     0.535328
                              0.168855     0.444635
   53.1 A    13  1s           3.425251     0.154329
                              0.623914     0.535328
                              0.168855     0.444635
   54.1 A    14  1s           3.425251     0.154329
                              0.623914     0.535328
                              0.168855     0.444635
   55.1 A    15  1s           3.425251     0.154329
                              0.623914     0.535328
                              0.168855     0.444635
   56.1 A    16  1s           3.425251     0.154329
                              0.623914     0.535328
                              0.168855     0.444635
   57.1 A    17  1s           3.425251     0.154329
                              0.623914     0.535328
                              0.168855     0.444635
   58.1 A    18  1s           3.425251     0.154329
                              0.623914     0.535328
                              0.168855     0.444635
   59.1 A    19  1s           3.425251     0.154329
                              0.623914     0.535328
                              0.168855     0.444635
   60.1 A    20  1s           3.425251     0.154329
                              0.623914     0.535328
                              0.168855     0.444635

 NUCLEAR CHARGE:                   77
 NUMBER OF PRIMITIVE AOS:         180
 NUMBER OF SYMMETRY AOS:          180
 NUMBER OF CONTRACTIONS:           60   (  60A   )
 NUMBER OF CORE ORBITALS:          10   (  10A   )
 NUMBER OF VALENCE ORBITALS:       50   (  50A   )


 NUCLEAR REPULSION ENERGY  519.39500749


 Eigenvalues of metric

         1 0.184E+00 0.214E+00 0.221E+00 0.224E+00 0.239E+00 0.282E+00 0.285E+00 0.302E+00


 Contracted 2-electron integrals neglected if value below      1.0D-11
 AO integral compression algorithm  1   Integral accuracy      1.0D-11

     6.291 MB (compressed) written to integral file ( 55.5%)


 NUMBER OF SORTED TWO-ELECTRON INTEGRALS:    1675365.     BUFFER LENGTH:  32768
 NUMBER OF SEGMENTS:   1  SEGMENT LENGTH:    1675365      RECORD LENGTH: 524288

 Memory used in sort:       2.23 MW

 SORT1 READ     1457402. AND WROTE     1076746. INTEGRALS IN      4 RECORDS. CPU TIME:     0.02 SEC, REAL TIME:     0.04 SEC
 SORT2 READ     1076746. AND WROTE     1675365. INTEGRALS IN     24 RECORDS. CPU TIME:     0.04 SEC, REAL TIME:     0.07 SEC

 FILE SIZES:   FILE 1:    26.6 MBYTE,  FILE 4:    16.8 MBYTE,   TOTAL:     43.5 MBYTE

 OPERATOR DM      FOR CENTER  0  COORDINATES:    0.000000    0.000000    0.000000


 **********************************************************************************************************************************
 DATASETS  * FILE   NREC   LENGTH (MB)   RECORD NAMES
              1      19       24.19       500      610      700      900      950      970     1000      129      960     1100   
                                          VAR    BASINP    GEOM    SYMINP    ZMAT    AOBASIS   BASIS     P2S    ABASIS      S 
                                         1400     1410     1200     1210     1080     1600     1650     1300     1700   
                                           T        V       H0       H01     AOSYM     SMH    MOLCAS    ERIS     OPER   

 PROGRAMS   *        TOTAL       INT
 CPU TIMES  *         0.93      0.83
 REAL TIME  *         1.15 SEC
 DISK USED  *        44.06 MB      
 **********************************************************************************************************************************


 PROGRAM * RHF-SCF (CLOSED SHELL)       Authors: W. Meyer, H.-J. Werner


 NUMBER OF ELECTRONS:      38+   38-    SPACE SYMMETRY=1    SPIN SYMMETRY: Singlet 
 CONVERGENCE THRESHOLDS:    1.00E-06 (Density)    1.54E-07 (Energy)
 MAX. NUMBER OF ITERATIONS:       60
 INTERPOLATION TYPE:            DIIS
 INTERPOLATION STEPS:              2 (START)      1 (STEP)
 LEVEL SHIFTS:                  0.00 (CLOSED)  0.00 (OPEN) 




   Atom=O  basis=MINAO             lmin=0  lmax=1
   Atom=C  basis=MINAO             lmin=0  lmax=1
   Atom=O  basis=MINAO             lmin=0  lmax=1
   Atom=C  basis=MINAO             lmin=0  lmax=1
   Atom=O  basis=MINAO             lmin=0  lmax=1
   Atom=C  basis=MINAO             lmin=0  lmax=1
   Atom=N  basis=MINAO             lmin=0  lmax=1
   Atom=C  basis=MINAO             lmin=0  lmax=1
   Atom=H  basis=MINAO             lmin=0  lmax=0

 Orbital guess generated from atomic densities. Full valence occupancy:   39

 Molecular orbital dump at record        2100.2

 Initial occupancy:  38

 ITERATION    DDIFF          GRAD             ENERGY        2-EL.EN.            DIPOLE MOMENTS         DIIS   ORB.
    1      0.000D+00      0.000D+00      -505.10057944   1378.215552   -0.49823    0.35607   -2.85668    0    start
    2      0.000D+00      0.125D-01      -505.26807443   1370.331501   -0.37897    0.18802   -2.50004    1    diag
    3      0.250D-01      0.486D-02      -505.28948579   1369.769404   -0.36745    0.19289   -2.45766    2    diag
    4      0.745D-02      0.126D-02      -505.29211565   1369.795234   -0.38005    0.29670   -2.37894    3    diag
    5      0.268D-02      0.538D-03      -505.29263365   1369.631099   -0.38282    0.29646   -2.36273    4    diag
    6      0.116D-02      0.168D-03      -505.29273047   1369.634723   -0.38640    0.31824   -2.34326    5    diag
    7      0.640D-03      0.675D-04      -505.29274027   1369.631096   -0.38615    0.31641   -2.33979    6    diag
    8      0.217D-03      0.189D-04      -505.29274117   1369.630318   -0.38624    0.31988   -2.33658    7    diag
    9      0.610D-04      0.678D-05      -505.29274126   1369.629672   -0.38610    0.31978   -2.33596    8    diag
   10      0.194D-04      0.150D-05      -505.29274127   1369.629551   -0.38609    0.31983   -2.33575    9    orth
   11      0.474D-05      0.442D-06      -505.29274127   1369.629601   -0.38609    0.31987   -2.33568    9    diag
   12      0.123D-05      0.191D-06      -505.29274127   1369.629578   -0.38609    0.31987   -2.33566    9    diag
   13      0.441D-06      0.691D-07      -505.29274127   1369.629585   -0.38609    0.31987   -2.33565    0    orth

 Final occupancy:  38

 !RHF STATE 1.1 Energy               -505.292741267182
 Nuclear energy                       519.39500749
 One-electron energy                -1709.50254142
 Two-electron energy                  684.81479266
 Virial quotient                       -1.01059811
 !RHF STATE 1.1 Dipole moment          -0.38609364     0.31986867    -2.33564988
 Dipole moment /Debye                  -0.98128786     0.81297181    -5.93624102

 ELECTRON ORBITALS
 =================


   Orb  Occ    Energy  Couls-En    Coefficients

                                   1 1s      1 1s      1 2px     1 2py     1 2pz     2 1s      2 1s      2 2px     2 2py     2 2pz  
                                   3 1s      3 1s      3 2px     3 2py     3 2pz     4 1s      4 1s      4 2px     4 2py     4 2pz  
                                   5 1s      5 1s      5 2px     5 2py     5 2pz     6 1s      6 1s      6 2px     6 2py     6 2pz  
                                   7 1s      7 1s      7 2px     7 2py     7 2pz     8 1s      8 1s      8 2px     8 2py     8 2pz  
                                   9 1s      9 1s      9 2px     9 2py     9 2pz    10 1s     10 1s     10 2px    10 2py    10 2pz  
                                  11 1s     12 1s     13 1s     14 1s     15 1s     16 1s     17 1s     18 1s     19 1s     20 1s   


   1.1   2   -20.6167  -65.0132  0.000005  0.000006 -0.000000 -0.000001 -0.000004  0.000001 -0.000019  0.000000  0.000006  0.000016
                                 0.000001 -0.000001 -0.000000  0.000002 -0.000001  0.000006  0.000038  0.000013 -0.000058  0.000060
                                -0.000028  0.000379  0.000044 -0.000476 -0.000241  0.000515 -0.006481 -0.000341  0.004630  0.003339
                                 0.994079  0.027205 -0.000638  0.005071  0.000735 -0.000037  0.000496  0.000053 -0.000515 -0.000195
                                -0.000086  0.000746  0.000085 -0.000807  0.000090 -0.000006 -0.000005 -0.000038 -0.000020  0.000045
                                 0.000129  0.000008  0.000011  0.000091  0.000032  0.000028 -0.000023 -0.000221  0.000000 -0.005050

   2.1   2   -20.4576  -63.5942  0.994043  0.027137 -0.000411  0.003963  0.002045  0.000506 -0.005213 -0.000827  0.004772 -0.001562
                                 0.001407  0.000204  0.000098 -0.000400  0.000479 -0.000022  0.000401  0.000063 -0.000360  0.000135
                                -0.000001 -0.000013  0.000009 -0.000152 -0.000133  0.000003 -0.000035 -0.000005  0.000016 -0.000027
                                -0.000006  0.000006  0.000000  0.000000  0.000005 -0.000000 -0.000003 -0.000000  0.000002  0.000004
                                -0.000000  0.000001 -0.000000  0.000001  0.000001 -0.000000  0.000000  0.000000 -0.000000 -0.000000
                                -0.000000 -0.000000 -0.000000 -0.000000  0.000002  0.000003 -0.000026 -0.000278 -0.005841 -0.000000

   3.1   2   -20.4323  -62.9503 -0.001475  0.000196  0.000002  0.000255  0.000475  0.000529 -0.007796  0.000499 -0.005584 -0.003808
                                 0.994214  0.026612  0.000445 -0.005028 -0.003477 -0.000028  0.000376 -0.000052  0.000494  0.000230
                                 0.000005  0.000049 -0.000012  0.000058 -0.000044  0.000001 -0.000019 -0.000001 -0.000005 -0.000015
                                -0.000000 -0.000001  0.000000 -0.000002  0.000001 -0.000000 -0.000000 -0.000000 -0.000001  0.000004
                                -0.000000  0.000001 -0.000000  0.000000  0.000001  0.000000  0.000000  0.000000  0.000000 -0.000000
                                -0.000000 -0.000000 -0.000000 -0.000000  0.000003  0.000005 -0.000228 -0.000016 -0.000077 -0.000000

   4.1   2   -15.5829  -53.0780 -0.000000  0.000001 -0.000000  0.000001 -0.000000  0.000001 -0.000011  0.000000  0.000002  0.000009
                                -0.000000 -0.000000 -0.000000  0.000001 -0.000001  0.000001  0.000028  0.000002  0.000011  0.000029
                                 0.000005 -0.000035  0.000015 -0.000049  0.000027 -0.000005  0.000392 -0.000030  0.000046 -0.000164
                                -0.000127  0.000930 -0.000098  0.000111 -0.000679  0.000499 -0.005477 -0.000068  0.000994  0.004255
                                 0.993259  0.032088 -0.000666  0.002293  0.000300  0.000487 -0.005122  0.003254  0.001128 -0.002285
                                 0.000221  0.000289  0.000420 -0.006653  0.000428  0.000322 -0.000082 -0.000011 -0.000000 -0.003237

   5.1   2   -11.4191  -45.3514  0.000002 -0.000003  0.000000  0.000008  0.000016 -0.000045 -0.000070  0.000000  0.000029  0.000054
                                 0.000001 -0.000007 -0.000001  0.000006  0.000002 -0.000124  0.000133  0.000006  0.000004  0.000087
                                 0.000397 -0.006214  0.000391 -0.000166  0.004094  0.992546  0.033303  0.000061 -0.001089 -0.000537
                                 0.000177 -0.005491  0.000054 -0.001510 -0.001773 -0.000978 -0.005401 -0.000704  0.003441 -0.001925
                                 0.000005  0.000312 -0.000057  0.000035  0.000008  0.000016  0.000017  0.000013 -0.000030  0.000006
                                -0.000007  0.000003 -0.000001 -0.000029 -0.000162 -0.000110 -0.000139  0.000008 -0.000004 -0.001515

   6.1   2   -11.3450  -44.1157  0.000283 -0.004543  0.000408 -0.002157  0.001122  0.992632  0.032244 -0.000086  0.000369 -0.000366
                                 0.000059 -0.005678 -0.000101  0.001110  0.000734 -0.001460 -0.006016 -0.000377  0.000147 -0.004266
                                -0.000184  0.000165  0.000012 -0.000070  0.000021  0.000056 -0.000051  0.000001 -0.000034 -0.000044
                                 0.000001 -0.000009  0.000001 -0.000007 -0.000003 -0.000090 -0.000006  0.000000 -0.000005 -0.000014
                                 0.000001 -0.000004  0.000000 -0.000000 -0.000003 -0.000000 -0.000000  0.000000  0.000000  0.000000
                                 0.000000  0.000000  0.000000  0.000000  0.000001 -0.000000 -0.000039 -0.000207 -0.001454  0.000000

   7.1   2   -11.3275  -43.8427 -0.000000  0.000001 -0.000000 -0.000000 -0.000002  0.000094 -0.000028  0.000001 -0.000003  0.000025
                                -0.000000  0.000001 -0.000000  0.000001 -0.000002 -0.000216 -0.000060  0.000007  0.000076  0.000129
                                -0.000030  0.000178 -0.000029  0.000208  0.000022  0.001965 -0.006082  0.000758 -0.003691  0.002428
                                -0.000036  0.000492 -0.000032  0.000209 -0.000096  0.991967  0.037271  0.000003 -0.000694  0.000257
                                 0.000450 -0.005278  0.000086 -0.001101 -0.003611 -0.000811 -0.000165  0.000040 -0.000006 -0.000297
                                 0.000018 -0.000030 -0.000055 -0.000337 -0.006942 -0.006887 -0.000100 -0.000018 -0.000000 -0.000597

   8.1   2   -11.2822  -43.9120 -0.000004  0.000272 -0.000020  0.000162  0.000047  0.002461 -0.006081  0.000360 -0.000097  0.004113
                                -0.000024  0.000294 -0.000009 -0.000048 -0.000196  0.992242  0.035644  0.000080 -0.001007 -0.000594
                                 0.011418 -0.007309  0.000262 -0.003546 -0.002723  0.000187  0.000134  0.000025 -0.000205 -0.000046
                                 0.000014 -0.000126 -0.000000 -0.000040 -0.000066  0.000231  0.000028 -0.000012  0.000002 -0.000071
                                 0.000004 -0.000028  0.000002 -0.000010 -0.000021 -0.000008 -0.000001  0.000001  0.000000 -0.000001
                                -0.000000 -0.000001 -0.000000 -0.000000 -0.000003  0.000016 -0.006813  0.000021 -0.000092 -0.000010

   9.1   2   -11.2603  -40.4443  0.000000  0.000000 -0.000000  0.000000  0.000000  0.000000 -0.000000 -0.000000  0.000000  0.000000
                                 0.000000 -0.000000 -0.000000  0.000000  0.000000  0.000009 -0.000000  0.000002 -0.000001  0.000001
                                -0.000020  0.000001 -0.000001 -0.000003 -0.000001 -0.000022  0.000016  0.000021  0.000007 -0.000021
                                -0.000012  0.000069 -0.000000  0.000025 -0.000057  0.000936 -0.000109 -0.000199  0.000003  0.000199
                                 0.000501 -0.005152 -0.002957 -0.001121  0.002094  0.992046  0.037135  0.000032  0.000064 -0.000141
                                -0.006936 -0.006927 -0.006960 -0.000309 -0.000055 -0.000050  0.000002  0.000000  0.000000 -0.000147

  10.1   2   -11.2498  -44.1218  0.000003  0.000037  0.000006 -0.000004  0.000068  0.000190  0.000281 -0.000026  0.000125 -0.000102
                                 0.000012 -0.000110  0.000000  0.000028  0.000057 -0.010803 -0.008316 -0.000251  0.003591  0.002884
                                 0.992044  0.037080 -0.000285  0.001680 -0.000350  0.000504 -0.007098 -0.000454  0.000363 -0.004573
                                -0.000020  0.000326  0.000002  0.000082  0.000155  0.000018  0.000249  0.000017 -0.000034  0.000075
                                 0.000008 -0.000058 -0.000002  0.000016 -0.000047  0.000020 -0.000002  0.000000 -0.000002  0.000002
                                 0.000002  0.000005  0.000001  0.000002 -0.000069 -0.000086  0.000227 -0.006725 -0.000027 -0.000061

  11.1   2    -1.6491  -21.9093 -0.000438  0.001481 -0.000054  0.000329 -0.000064 -0.000580  0.001348 -0.000020 -0.000074 -0.000368
                                -0.000282  0.000947  0.000024 -0.000266 -0.000184 -0.002803  0.006540  0.000171 -0.002803 -0.002461
                                -0.015934  0.038189 -0.002551  0.002996 -0.023982 -0.111625  0.246456  0.004913 -0.098830 -0.096244
                                -0.213881  0.749044 -0.021230  0.171012  0.027098 -0.025948  0.057375  0.004495 -0.026815  0.004124
                                -0.021075  0.062175  0.000786 -0.006461  0.015480 -0.003814  0.007818 -0.002753 -0.001292  0.002437
                                 0.000564  0.000847  0.000669  0.004720  0.005324  0.005211  0.001174  0.004729  0.000160  0.078359

  12.1   2    -1.5505  -20.2366 -0.153099  0.535453 -0.013687  0.109385  0.028082 -0.140903  0.314696  0.005343  0.009787  0.081698
                                -0.139233  0.472847  0.010888 -0.115248 -0.071578 -0.025013  0.060160  0.003388 -0.004995  0.032099
                                -0.007095  0.016645 -0.000242  0.005763  0.006597 -0.000501  0.001548  0.000118  0.000814  0.002623
                                 0.001398 -0.005036  0.000147 -0.000942  0.000204 -0.000106  0.000344  0.000030 -0.000030  0.000279
                                 0.000139 -0.000428 -0.000008  0.000072 -0.000061  0.000032 -0.000069  0.000023  0.000012 -0.000019
                                -0.000006 -0.000007 -0.000008 -0.000040  0.000058  0.000065  0.007823  0.004705  0.074385 -0.000677

  13.1   2    -1.4434  -19.9339  0.166503 -0.596501  0.006253 -0.065837 -0.041111 -0.034570  0.074394 -0.028519  0.221591  0.046216
                                -0.165793  0.577036  0.007119 -0.094366 -0.080329 -0.003581  0.011122 -0.000616  0.009309  0.008564
                                 0.003340 -0.007663 -0.000336  0.000059 -0.003650  0.000303 -0.000877 -0.000083 -0.000070 -0.001045
                                -0.000344  0.001279 -0.000052  0.000209 -0.000265 -0.000056  0.000107 -0.000007  0.000024 -0.000107
                                -0.000168  0.000545  0.000001  0.000005  0.000051 -0.000053  0.000126 -0.000039 -0.000016  0.000032
                                 0.000017  0.000018  0.000017  0.000078  0.000015  0.000011  0.005264 -0.004599 -0.099330  0.000287

  14.1   2    -1.3949  -19.7081  0.000137 -0.000501 -0.000002 -0.000071 -0.000154  0.000002  0.000022 -0.000033 -0.000205 -0.000765
                                 0.000405 -0.001429 -0.000034  0.000273  0.000073 -0.002118  0.005187 -0.000134 -0.000229 -0.001881
                                -0.000149  0.001974 -0.000513  0.004310  0.000738 -0.004803  0.012095 -0.010617  0.074104 -0.011386
                                 0.047118 -0.179891 -0.000539 -0.007182 -0.026522 -0.106950  0.273554  0.004210 -0.034025 -0.085465
                                -0.196007  0.651540 -0.002509  0.053441  0.036091 -0.073575  0.180990 -0.054703 -0.018747  0.042967
                                 0.026348  0.028897  0.026351  0.109865  0.043462  0.044190  0.001501 -0.001519 -0.000131  0.018727

  15.1   2    -1.2559  -20.3280  0.019846 -0.075996 -0.002446 -0.002245 -0.033007 -0.019078  0.054381 -0.006273 -0.005291 -0.083998
                                 0.019078 -0.070165 -0.002411  0.011739 -0.008103 -0.135128  0.354060  0.004376 -0.072748 -0.065322
                                -0.164421  0.418025 -0.013700  0.085167 -0.015686 -0.099021  0.284400  0.002205  0.059660  0.128992
                                 0.048028 -0.192628  0.004837  0.006291  0.071173 -0.051201  0.147013  0.005844 -0.024819  0.055325
                                 0.028299 -0.099944 -0.004615  0.003058  0.030017  0.021228 -0.056324  0.012631  0.005598 -0.006607
                                -0.010743 -0.009661 -0.011457 -0.023869  0.035232  0.034967  0.076808  0.076532 -0.027954 -0.061651

  16.1   2    -1.1628  -19.0779 -0.014740  0.058303  0.004210 -0.006068  0.039734  0.026048 -0.075277  0.005689  0.009913  0.085456
                                -0.018044  0.068680  0.002477 -0.008261  0.015026  0.091971 -0.251530 -0.005529  0.037352 -0.001897
                                 0.055158 -0.144620 -0.002246 -0.034015 -0.076082 -0.069434  0.207389 -0.031004  0.140283 -0.083689
                                 0.042383 -0.177587 -0.009483  0.057165  0.019284 -0.150117  0.437897 -0.004433 -0.041375  0.066448
                                 0.050354 -0.185396 -0.045360 -0.015057  0.165667  0.101998 -0.286033  0.036279  0.014160 -0.010057
                                -0.065267 -0.060159 -0.070966 -0.060425  0.117526  0.106738 -0.053757 -0.040774  0.031316 -0.039627

  17.1   2    -1.0855  -18.8020  0.019600 -0.079898 -0.010418  0.026762 -0.078355 -0.055492  0.164962 -0.009205 -0.023633 -0.151696
                                 0.034151 -0.134771 -0.004724  0.008937 -0.040918 -0.111570  0.318000  0.003469  0.020645  0.078991
                                 0.047985 -0.129860  0.004043  0.070492  0.166251  0.098833 -0.309097 -0.025538  0.055869 -0.140327
                                -0.031244  0.138216 -0.020108 -0.020160 -0.199847 -0.028507  0.081554 -0.032320  0.004685 -0.064608
                                -0.020495  0.078187 -0.098860 -0.049313  0.106270  0.114618 -0.336016 -0.007280 -0.007752  0.008665
                                -0.091798 -0.094581 -0.094943  0.033399  0.030867  0.007092  0.093849 -0.040975 -0.061070  0.132423

  18.1   2    -1.0342  -17.3764  0.009122 -0.038072 -0.007232  0.023397 -0.047051 -0.035739  0.108789 -0.004890 -0.014634 -0.086527
                                 0.021666 -0.087975 -0.002835  0.001859 -0.031513 -0.047491  0.140489 -0.001195  0.055823  0.067851
                                 0.067414 -0.190213  0.000034  0.054471  0.063869  0.013268 -0.040638 -0.018273  0.118652 -0.149335
                                -0.007361  0.034660 -0.001080  0.030404 -0.093147 -0.068225  0.210780  0.056200  0.030157  0.113067
                                 0.086210 -0.335402  0.203309  0.009321  0.026020 -0.133506  0.402270  0.082242  0.026467 -0.021145
                                 0.136267  0.145378  0.115906 -0.189998  0.060712  0.113552  0.063682 -0.073658 -0.037385  0.023407

  19.1   2    -0.9455  -19.3784  0.022829 -0.098954 -0.030966  0.112955 -0.175220 -0.096199  0.308755 -0.002007 -0.067765 -0.143569
                                 0.047461 -0.201560 -0.002255 -0.031019 -0.082085  0.002853  0.001104  0.008308  0.086070  0.246833
                                 0.071658 -0.211720  0.006209 -0.100842 -0.073776 -0.060013  0.207523  0.014130 -0.196575 -0.072111
                                 0.025718 -0.133637  0.016240  0.098340  0.413315 -0.000328  0.004972 -0.022571  0.012738 -0.026509
                                -0.010650  0.040104 -0.062975  0.119339 -0.033784  0.006580 -0.020668 -0.031277  0.025371  0.000748
                                -0.030193 -0.004236  0.002459  0.066745  0.008885 -0.010837 -0.008547 -0.040017 -0.145226 -0.264305

  20.1   2    -0.9179  -18.7292 -0.001550  0.007224  0.002640 -0.015013  0.007144  0.012989 -0.042182  0.001448  0.000791  0.021066
                                -0.009061  0.039828  0.000666  0.005386  0.018345  0.008448 -0.026309  0.004588 -0.048867 -0.021524
                                -0.031682  0.088786  0.013780 -0.069535  0.058481  0.093925 -0.319290  0.030558 -0.147201  0.160867
                                -0.080162  0.377145  0.047466 -0.325362  0.088442 -0.071497  0.241075 -0.060715  0.339466 -0.042573
                                 0.020620 -0.092690 -0.046232  0.219029  0.021632  0.000201 -0.001467 -0.001002  0.075235  0.014524
                                -0.033233  0.044643  0.003481  0.013432  0.188273  0.198837 -0.026519  0.087281  0.008167 -0.099534

  21.1   2    -0.8963  -18.0356 -0.026064  0.116570  0.043876 -0.161257  0.245569  0.060982 -0.208841 -0.024880  0.152727 -0.027991
                                -0.008761  0.033693 -0.011546  0.060040 -0.032440 -0.075455  0.243750 -0.048965  0.261001 -0.112559
                                 0.068611 -0.219381 -0.035398  0.163572 -0.077413 -0.017226  0.062135 -0.018193 -0.050111 -0.008877
                                -0.009655  0.041358 -0.009099 -0.008733  0.156501  0.011007 -0.037274 -0.063171  0.042351  0.059673
                                -0.003554  0.010482 -0.110188  0.072748 -0.119841  0.000422 -0.002490 -0.040541  0.020625 -0.037905
                                -0.024017 -0.013372  0.031765  0.111800  0.046582 -0.009508  0.276846 -0.185257  0.205308 -0.112176

  22.1   2    -0.8618  -17.9106 -0.011715  0.054495  0.026847 -0.100896  0.103895  0.031157 -0.108887 -0.007801  0.075827 -0.035254
                                -0.010346  0.045376 -0.004794  0.044882 -0.013424 -0.025512  0.082977  0.013957  0.040019 -0.019691
                                -0.001891  0.007357  0.047699 -0.018135  0.043150  0.013037 -0.044471  0.157954 -0.123706 -0.069772
                                 0.010165 -0.056724  0.150784  0.075834  0.146689  0.002329 -0.000147  0.306989  0.015175 -0.217562
                                -0.024890  0.110365  0.287267  0.062914  0.212665  0.028901 -0.089528 -0.012643 -0.014412  0.199868
                                -0.047586  0.015092 -0.150240 -0.204570 -0.226280  0.115570  0.057505  0.026935  0.094871 -0.079830

  23.1   2    -0.8278  -18.8017  0.017793 -0.085410 -0.029557  0.182777 -0.101652 -0.054105  0.189322  0.026599 -0.080421  0.076295
                                 0.034043 -0.158309  0.018517 -0.106452 -0.016315  0.024776 -0.073915  0.001548  0.143835  0.000718
                                 0.025778 -0.090151  0.004546  0.087918 -0.268857 -0.025345  0.087593  0.130067  0.161625  0.282159
                                -0.030237  0.161380  0.157985 -0.241679 -0.157096  0.014306 -0.049738  0.218051  0.081923  0.125382
                                -0.019915  0.085839  0.089701 -0.025443 -0.168450  0.023666 -0.076506 -0.109898 -0.065839  0.060928
                                -0.050218 -0.077328 -0.054439  0.025645 -0.113207  0.148886  0.060662 -0.149126 -0.112833  0.087903

  24.1   2    -0.7897  -18.8673 -0.015638  0.080823  0.026857 -0.173012  0.103387 -0.022946  0.066091 -0.055327  0.196398 -0.205504
                                 0.031775 -0.154054 -0.031106  0.040510 -0.239847  0.027323 -0.077526 -0.026586  0.208402  0.262674
                                -0.009354  0.047121 -0.011435 -0.291705 -0.202504 -0.005684  0.013289 -0.074632  0.022591  0.241683
                                -0.001029  0.015114 -0.093430 -0.191071 -0.118182 -0.004682  0.021657 -0.105620 -0.043860 -0.039561
                                -0.007510  0.038055  0.072305 -0.140380  0.111505 -0.003833  0.013953  0.088774 -0.096928  0.030599
                                 0.096333 -0.014225 -0.055229 -0.092915  0.063081 -0.078100  0.043108  0.149270  0.107141  0.120207

  25.1   2    -0.7798  -18.2922  0.023772 -0.118655 -0.051763  0.212265 -0.026222 -0.019921  0.076032  0.007618 -0.111443  0.198600
                                 0.017919 -0.087742  0.014819 -0.145282  0.096342 -0.009967  0.035938 -0.066111  0.058633 -0.156885
                                 0.006882 -0.033532 -0.105694  0.144210 -0.095869  0.007602 -0.028795 -0.181827 -0.085271  0.142116
                                -0.013108  0.066369 -0.228622 -0.167020  0.090992  0.006828 -0.014460 -0.179082 -0.102681 -0.227962
                                -0.010600  0.048810  0.098808  0.024244  0.286863 -0.007822  0.028540  0.138551  0.022709  0.133548
                                 0.052843  0.105070 -0.108342 -0.156294  0.044509 -0.192993  0.090673 -0.143385 -0.069284 -0.030142

  26.1   2    -0.7461  -17.6886  0.018194 -0.087551  0.055244  0.074958  0.104344 -0.029148  0.097572  0.061020  0.077384  0.060296
                                 0.039296 -0.197895  0.055579 -0.141065 -0.083054  0.005774 -0.015051  0.062429  0.066381  0.005096
                                -0.012182  0.045580  0.105182 -0.019705 -0.076883 -0.003173  0.009289  0.240821  0.067608  0.037740
                                 0.000889  0.000681  0.338638  0.027368 -0.138932  0.002974 -0.008290  0.011899 -0.099598 -0.162925
                                 0.021364 -0.101711 -0.312668  0.060019  0.228980 -0.008858  0.021075  0.178348  0.300282 -0.114458
                                -0.051995  0.227040  0.113955  0.109259 -0.084907 -0.069909  0.019574  0.017377  0.056266  0.039539

  27.1   2    -0.7361  -16.9792 -0.033365  0.164144 -0.040081 -0.166787 -0.139951  0.021861 -0.073286 -0.070721 -0.025017 -0.183124
                                -0.039501  0.201585 -0.071333  0.220015 -0.018291  0.010151 -0.040980 -0.035477 -0.052791  0.093170
                                 0.009107 -0.032028 -0.086395  0.047289 -0.074167 -0.027831  0.107426 -0.172097  0.134137  0.085366
                                -0.012592  0.072404 -0.257412 -0.132845 -0.110563  0.014250 -0.050916  0.113257 -0.107909 -0.016544
                                 0.006160 -0.033320 -0.011279  0.192744  0.005147  0.001258 -0.004064 -0.114711  0.360636  0.084338
                                -0.282171  0.213117  0.044913  0.014984 -0.152775 -0.017746 -0.081175 -0.068010 -0.060837  0.012350

  28.1   2    -0.7335  -17.8696 -0.047715  0.230547  0.055548 -0.123830 -0.311151  0.055528 -0.182869  0.078713 -0.157148 -0.169320
                                -0.082842  0.422238  0.004226  0.360666  0.145934 -0.002578  0.004408  0.049026  0.041043 -0.009916
                                 0.021369 -0.079417  0.059685  0.073714 -0.084667 -0.003721  0.016199  0.165900  0.023962  0.083818
                                -0.013861  0.072067  0.288142 -0.143280  0.066042 -0.004541  0.021262 -0.088070 -0.068798 -0.066510
                                -0.004928  0.022194 -0.080399 -0.089055  0.126992 -0.004349  0.012387  0.169781 -0.122043 -0.036353
                                 0.173228 -0.025290 -0.037285  0.007432  0.040159 -0.095542  0.036465 -0.082401 -0.174040 -0.036818

  29.1   2    -0.7110  -18.1890 -0.009149  0.041960 -0.352121  0.026322 -0.123149  0.023496 -0.076672 -0.298243 -0.182772  0.117089
                                -0.023350  0.120979 -0.216530  0.020123  0.170605  0.004222 -0.003404 -0.155029  0.266483 -0.074182
                                -0.006624  0.036592 -0.038855 -0.228086 -0.043548  0.011386 -0.053206  0.019671 -0.099580 -0.014192
                                 0.027903 -0.144210 -0.023801  0.227858 -0.108263  0.006142 -0.025255  0.065081  0.112982 -0.020533
                                 0.007070 -0.030373 -0.093423 -0.054825  0.013394  0.002678 -0.012835  0.055825  0.057947 -0.038223
                                -0.003751  0.050872  0.023636  0.048300 -0.024252  0.109483  0.263892  0.169029 -0.118750  0.103980

  30.1   2    -0.7097  -18.2730 -0.006569  0.030201  0.386087  0.115452 -0.144351  0.016845 -0.055057  0.417371 -0.040094  0.037897
                                -0.015987  0.082943  0.275622  0.072917  0.087777  0.004660 -0.007347  0.083149  0.237104 -0.070432
                                -0.006654  0.034918  0.072382 -0.172701 -0.040243  0.006574 -0.033221 -0.077417 -0.079915 -0.012663
                                 0.023746 -0.122384 -0.213906  0.185199 -0.098990  0.008811 -0.035158 -0.002906  0.089774  0.013974
                                 0.003454 -0.013184  0.035571  0.003513 -0.044159  0.001301 -0.003570 -0.054031  0.087286  0.041671
                                -0.090163  0.053759  0.000735 -0.014127  0.023287  0.054183  0.203681  0.141235 -0.088271  0.091874

  31.1   2    -0.6874  -16.6826 -0.000435  0.001545 -0.059838  0.015086 -0.019253  0.004716 -0.016016 -0.040847 -0.033308  0.035729
                                -0.002538  0.013339 -0.031014 -0.007873  0.039140  0.000919  0.000244 -0.004503  0.084801 -0.019984
                                -0.002178  0.012210  0.052855 -0.070735 -0.001475  0.003254 -0.012055  0.125437  0.059029 -0.028361
                                -0.004921  0.027078  0.317890 -0.002380 -0.062091 -0.007389  0.032701 -0.288514 -0.115841 -0.027090
                                -0.003628  0.021663  0.329930  0.119860  0.010800 -0.009507  0.043382 -0.370258  0.084233 -0.051290
                                -0.247341 -0.115056  0.176264 -0.241708  0.213523 -0.269383  0.075073  0.068067 -0.021411 -0.009891

  32.1   2    -0.6845  -16.2365 -0.003134  0.016578 -0.030596 -0.038674  0.005333 -0.005528  0.019371 -0.038171  0.024754 -0.037491
                                 0.002647 -0.013681 -0.028516  0.008888 -0.050599  0.004466 -0.019030  0.018712 -0.060041  0.025289
                                -0.002331  0.007462  0.019297  0.068831 -0.041300 -0.012879  0.043450  0.104090 -0.042161  0.011704
                                 0.020405 -0.106314  0.179214  0.282511 -0.133603  0.030261 -0.121973 -0.232951  0.136282  0.145635
                                 0.000108  0.000868  0.049055  0.033055 -0.218770 -0.002014  0.011008  0.110816  0.079209  0.435891
                                -0.023126  0.262270 -0.352775  0.059620  0.227670 -0.068179 -0.066925 -0.063738  0.008040  0.083839

  33.1   2    -0.6530  -18.3220 -0.012367  0.063393  0.008686 -0.065759 -0.038252 -0.011110  0.042353 -0.012574  0.045318 -0.086068
                                 0.002149 -0.010957 -0.017129  0.052915 -0.124034  0.005724 -0.027667  0.016433 -0.117037  0.019724
                                -0.013534  0.040763 -0.052369  0.221979 -0.208733 -0.000926 -0.015477  0.051320 -0.274927  0.224132
                                 0.038301 -0.201576 -0.089416  0.397067 -0.167152  0.008328 -0.032573 -0.045325  0.301522 -0.220990
                                 0.004429 -0.014013  0.041877 -0.012435  0.157147  0.003471 -0.014061 -0.072705 -0.013469 -0.197652
                                -0.018322 -0.117435  0.176150 -0.111390  0.075612  0.100569 -0.138660 -0.241916 -0.015789  0.188167

  34.1   2    -0.6099  -18.0519  0.075305 -0.397532 -0.023408  0.408543  0.432902 -0.003248  0.016564  0.020181 -0.236890 -0.175714
                                -0.043327  0.244796 -0.018674  0.319792  0.336832 -0.025660  0.108346  0.023915 -0.019002  0.252097
                                 0.008145 -0.025048  0.000787 -0.056673 -0.076728 -0.010522  0.039149  0.009529 -0.018500  0.076393
                                 0.006319 -0.031759 -0.002382  0.001348 -0.031009  0.000166 -0.000806 -0.004153  0.024462  0.002825
                                -0.001654  0.009834  0.006052 -0.052159  0.005232  0.000816 -0.003157 -0.005426  0.024927 -0.006653
                                -0.023661  0.015857  0.013401 -0.011157  0.012513  0.013998 -0.061250 -0.040202  0.268807  0.043521

  35.1   2    -0.5583  -17.8109  0.004009 -0.021400 -0.008340  0.046783  0.022339 -0.001447  0.006787  0.001292 -0.018085 -0.012740
                                -0.002077  0.012683 -0.007726  0.047991 -0.009699  0.006966 -0.026001 -0.001712  0.050892  0.021700
                                -0.008777  0.041584  0.005965 -0.037473 -0.043140 -0.022057  0.092279 -0.022164  0.145760 -0.030157
                                -0.011393  0.069977 -0.057515  0.147436 -0.323426 -0.000257  0.002389  0.009294 -0.039816 -0.141000
                                 0.043136 -0.231263 -0.064628  0.778537 -0.022794 -0.007695  0.028973  0.012772 -0.228549  0.032041
                                 0.237896 -0.198879 -0.096322  0.091754 -0.088521 -0.110374  0.017105  0.038989  0.009734 -0.075236

  36.1   2    -0.5423  -18.6620  0.000077 -0.000381 -0.478145 -0.070499  0.039987 -0.000092  0.000328  0.006575  0.001333 -0.000958
                                 0.000030 -0.000172  0.081750  0.011326 -0.007005 -0.000140  0.000611  0.473030  0.065485 -0.039756
                                -0.000082  0.000310  0.542635  0.076317 -0.047570  0.000154 -0.000675  0.046365  0.004836 -0.003115
                                 0.000133 -0.000809 -0.316909 -0.045476  0.031187  0.000075 -0.000241 -0.034148 -0.005643  0.002952
                                -0.000472  0.002656  0.013723 -0.005975 -0.003243 -0.001693  0.007331 -0.008324 -0.000749  0.009691
                                -0.006195  0.001246 -0.004154 -0.012759  0.023132 -0.018178 -0.000774 -0.000984  0.000506  0.001229

  37.1   2    -0.5053  -18.0146 -0.002369  0.008949  0.056001 -0.397344 -0.046189 -0.002349 -0.004579 -0.011627  0.034670 -0.070697
                                 0.001316 -0.004978  0.129087 -0.496176  0.703500 -0.037100  0.169459  0.025304 -0.017625  0.263748
                                 0.016499 -0.063096 -0.002941 -0.023470 -0.074991 -0.015253  0.063496  0.007176 -0.001596  0.075717
                                 0.003543 -0.017051 -0.006380  0.008740 -0.048680  0.000881 -0.003474 -0.002536  0.016579 -0.015198
                                 0.002254 -0.011796 -0.002315  0.035806  0.004876  0.000031 -0.000277  0.000198 -0.006462 -0.001788
                                 0.008691 -0.008521 -0.000738  0.000086 -0.000752 -0.002014 -0.057559 -0.045866  0.042457  0.024250

  38.1   2    -0.4908  -18.0971 -0.000000  0.000021  0.609807  0.090069 -0.050271 -0.000010  0.000077 -0.279328 -0.040733  0.023337
                                 0.000011 -0.000075 -0.601117 -0.086466  0.047918  0.000046 -0.000142  0.167474  0.023701 -0.014837
                                -0.000112  0.000466  0.296691  0.040984 -0.025918  0.000072 -0.000319  0.048286  0.006474 -0.004355
                                 0.000020 -0.000131 -0.158486 -0.022411  0.014697 -0.000002  0.000043 -0.018832 -0.003414  0.001218
                                 0.000004  0.000090  0.005506 -0.000966 -0.001845 -0.000930  0.004050 -0.003644 -0.000634  0.004728
                                -0.002328  0.000431 -0.002267 -0.005501  0.015175 -0.012993  0.000272  0.000032 -0.000095  0.000261

 HOMO     38.1    -0.490796 =     -13.3552eV
 LUMO     39.1    -0.060496 =      -1.6462eV
 LUMO-HOMO         0.430300 =      11.7091eV


 **********************************************************************************************************************************
 DATASETS  * FILE   NREC   LENGTH (MB)   RECORD NAMES
              1      19       24.19       500      610      700      900      950      970     1000      129      960     1100   
                                          VAR    BASINP    GEOM    SYMINP    ZMAT    AOBASIS   BASIS     P2S    ABASIS      S 
                                         1400     1410     1200     1210     1080     1600     1650     1300     1700   
                                           T        V       H0       H01     AOSYM     SMH    MOLCAS    ERIS     OPER   

              2       4        3.15       700     1000      520     2100   
                                         GEOM     BASIS   MCVARS     RHF  

 PROGRAMS   *        TOTAL       RHF       INT
 CPU TIMES  *         1.20      0.26      0.83
 REAL TIME  *         1.51 SEC
 DISK USED  *        44.06 MB      
 **********************************************************************************************************************************


 PROGRAM * HESSIAN

 *** Long output written to logfile /scratch_p/cours/31332/molpro.log ***


 PROGRAM * MCKINLEY (Hessian of the energy)     Author: A. Bernhardsson, R. Lindh

 Orbitals from record         2100.2

 Number of closed-shell orbitals: 38 ( 38 )
 Number of occupied orbitals:     38 ( 38 )

 Number of electrons= 76     Singlet     Space symmetry=1      Wavefunction type: CLOSED          


 McKinley needed     24.40 seconds of CPU time

 Entering CPHF calculation

 CPHF needed 485 iterations for 60 perturbations.  Total CPU time:    7.44 sec


 RHF-SCF hessian saved to record  5300.2

 PROGRAM * FREQUENCIES (Calculation of harmonuc vibrational spectra for RHF-SCF)


 Permanent Dipole Moment [debye]
   1-  3    0.000000    0.000000    0.000000

 Dipole Moment Norm    0.0000000 [debye]

 Dipole Moment Derivatives [debye/ang]
                   1             2             3             4             5             6             7             8
         1     0.0000000     0.0000000     0.0000000     0.0000000     0.0000000     0.0000000     0.0000000     0.0000000
         2     0.0000000     0.0000000     0.0000000     0.0000000     0.0000000     0.0000000     0.0000000     0.0000000
         3     0.0000000     0.0000000     0.0000000     0.0000000     0.0000000     0.0000000     0.0000000     0.0000000
                   9            10            11            12            13            14            15            16
         1     0.0000000     0.0000000     0.0000000     0.0000000     0.0000000     0.0000000     0.0000000     0.0000000
         2     0.0000000     0.0000000     0.0000000     0.0000000     0.0000000     0.0000000     0.0000000     0.0000000
         3     0.0000000     0.0000000     0.0000000     0.0000000     0.0000000     0.0000000     0.0000000     0.0000000
                  17            18            19            20            21            22            23            24
         1     0.0000000     0.0000000     0.0000000     0.0000000     0.0000000     0.0000000     0.0000000     0.0000000
         2     0.0000000     0.0000000     0.0000000     0.0000000     0.0000000     0.0000000     0.0000000     0.0000000
         3     0.0000000     0.0000000     0.0000000     0.0000000     0.0000000     0.0000000     0.0000000     0.0000000
                  25            26            27            28            29            30            31            32
         1     0.0000000     0.0000000     0.0000000     0.0000000     0.0000000     0.0000000     0.0000000     0.0000000
         2     0.0000000     0.0000000     0.0000000     0.0000000     0.0000000     0.0000000     0.0000000     0.0000000
         3     0.0000000     0.0000000     0.0000000     0.0000000     0.0000000     0.0000000     0.0000000     0.0000000
                  33            34            35            36            37            38            39            40
         1     0.0000000     0.0000000     0.0000000     0.0000000     0.0000000     0.0000000     0.0000000     0.0000000
         2     0.0000000     0.0000000     0.0000000     0.0000000     0.0000000     0.0000000     0.0000000     0.0000000
         3     0.0000000     0.0000000     0.0000000     0.0000000     0.0000000     0.0000000     0.0000000     0.0000000
                  41            42            43            44            45            46            47            48
         1     0.0000000     0.0000000     0.0000000     0.0000000     0.0000000     0.0000000     0.0000000     0.0000000
         2     0.0000000     0.0000000     0.0000000     0.0000000     0.0000000     0.0000000     0.0000000     0.0000000
         3     0.0000000     0.0000000     0.0000000     0.0000000     0.0000000     0.0000000     0.0000000     0.0000000
                  49            50            51            52            53            54            55            56
         1     0.0000000     0.0000000     0.0000000     0.0000000     0.0000000     0.0000000     0.0000000     0.0000000
         2     0.0000000     0.0000000     0.0000000     0.0000000     0.0000000     0.0000000     0.0000000     0.0000000
         3     0.0000000     0.0000000     0.0000000     0.0000000     0.0000000     0.0000000     0.0000000     0.0000000
                  57            58            59            60
         1     0.0000000     0.0000000     0.0000000     0.0000000
         2     0.0000000     0.0000000     0.0000000     0.0000000
         3     0.0000000     0.0000000     0.0000000     0.0000000

 Projecting out rotations and translations

 Imaginary Vibration  Wavenumber
        Nr             [1/cm] 
        1              299.58
        2              283.83
        3              182.83
        4              149.80
        5              128.77
        6               61.72

   Low Vibration      Wavenumber
        Nr             [1/cm] 
        1                0.00
        2                0.00
        3                0.00
        4                0.00
        5                0.00
        6                0.00

     Vibration        Wavenumber
        Nr             [1/cm] 
        1              130.12
        2              160.22
        3              203.71
        4              219.52
        5              405.98
        6              458.37
        7              471.39
        8              532.93
        9              598.41
       10              660.41
       11              748.19
       12              841.70
       13             1009.90
       14             1036.04
       15             1090.83
       16             1105.84
       17             1158.97
       18             1171.49
       19             1317.90
       20             1340.71
       21             1379.05
       22             1402.04
       23             1444.93
       24             1452.39
       25             1460.29
       26             1476.85
       27             1585.23
       28             1601.77
       29             1681.21
       30             1693.76
       31             1730.51
       32             1743.79
       33             1775.39
       34             1790.52
       35             1802.39
       36             1933.26
       37             2001.89
       38             2266.64
       39             2941.47
       40             3602.34
       41             3629.95
       42             3733.12
       43             3766.55
       44             3769.92
       45             3789.61
       46             3790.74
       47             4274.46
       48             4530.86

 FREQUENCIES * CALCULATION OF NORMAL MODES FOR RHF-SCF


 Atomic Coordinates

  Nr  Atom  Charge       X              Y              Z

   1   O     8.00    0.501348159   -1.756303644    6.093543306
   2   C     6.00    0.094307342    0.573137950    5.289690327
   3   O     8.00   -0.068711563    2.420579877    6.574666587
   4   C     6.00   -0.160391528    0.717803282    2.490404930
   5   C     6.00   -0.010661500   -1.292289347    0.966294451
   6   C     6.00   -0.282929547   -1.045335916   -1.713740701
   7   O     8.00   -0.144104694   -2.946677515   -3.102775255
   8   C     6.00   -0.775547353    1.366108046   -3.198316826
   9   N     7.00   -0.711093167    0.602929866   -5.822220709
  10   C     6.00    1.441133697    1.467783040   -7.360940305
  11   H     1.00    2.812934723   -0.039963280   -7.602211200
  12   H     1.00    2.370383471    3.084488746   -6.499105791
  13   H     1.00    0.769002034    2.033023814   -9.212234446
  14   H     1.00   -2.369626273    0.938912939   -6.694862562
  15   H     1.00   -2.616063071    2.112295063   -2.654375087
  16   H     1.00    0.636740053    2.791765901   -2.743202484
  17   H     1.00   -0.483551223    2.615446296    1.808925871
  18   H     1.00    0.312383195   -3.169370628    1.698724372
  19   H     1.00    0.648303015   -1.733633983    7.913221235
  20   H     1.00   -0.424223810   -2.079152775   -4.918411845

 Frequencies dumped to record   5400.2

 Normal Modes

                              1 A         2 A         3 A         4 A         5 A  
 Wavenumbers [cm-1]          130.12      160.22      203.71      219.52      405.98
 Intensities [km/mol]          0.00        0.00        0.00        0.00        0.00
 Intensities [relative]        0.00        0.00        0.00        0.00        0.00
           OX1             -0.00650    -0.03229     0.00976     0.01119    -0.00348
           OY1              0.01077    -0.00727    -0.01347    -0.01060     0.05350
           OZ1             -0.05259     0.02802     0.11608     0.05064     0.03619
           CX2              0.01002     0.05236     0.00613    -0.00343    -0.01345
           CY2              0.02364    -0.00009    -0.03523    -0.02335     0.05349
           CZ2             -0.01950     0.00398     0.04980     0.02231     0.04131
           OX3             -0.00665    -0.09203     0.00007     0.01099     0.02062
           OY3              0.01137    -0.01628    -0.01344    -0.00392    -0.01335
           OZ3             -0.00491     0.00937     0.02083    -0.00182     0.14547
           CX4              0.02784     0.16673    -0.00949     0.00213    -0.00508
           CY4              0.02976     0.01571    -0.02180    -0.00955     0.02469
           CZ4             -0.02253    -0.00546     0.04635     0.01848     0.00055
           CX5             -0.01489    -0.02895     0.06414    -0.10398    -0.01025
           CY5             -0.00175    -0.00094     0.03507    -0.00192     0.00634
           CZ5              0.00502     0.00101    -0.02237    -0.01173    -0.01112
           CX6             -0.01052    -0.01059    -0.01132    -0.00082     0.02006
           CY6             -0.03936     0.00878     0.04877     0.03739    -0.07724
           CZ6              0.01127    -0.00416    -0.02042    -0.01277    -0.05334
           OX7             -0.05135    -0.01417    -0.07190     0.11237    -0.00081
           OY7             -0.11525     0.02558    -0.00728    -0.03173    -0.03213
           OZ7              0.07763    -0.01604     0.03860     0.05124    -0.12072
           CX8              0.03281    -0.03920    -0.02482     0.00537     0.01814
           CY8             -0.05823     0.00460     0.00769     0.01071    -0.05791
           CZ8             -0.00950    -0.01029    -0.09193    -0.04609    -0.01589
           NX9              0.02351     0.00663     0.03665    -0.06098    -0.03282
           NY9              0.01925    -0.02979    -0.02728     0.08644     0.00583
           NZ9             -0.02132    -0.00319    -0.08083    -0.05629    -0.04191
           CX10            -0.00271     0.00181     0.01937    -0.00998     0.00486
           CY10             0.13328    -0.00357     0.03705    -0.03593     0.01455
           CZ10             0.01949     0.00023    -0.06952    -0.03506     0.00618
           HX11             0.04134     0.02437     0.06246    -0.08216    -0.00354
           HY11             0.18452     0.01455     0.07742    -0.10404     0.00623
           HZ11            -0.05495     0.01633    -0.07910    -0.02435     0.01486
           HX12            -0.03609    -0.03015    -0.02508     0.08044    -0.00220
           HY12             0.12083     0.01351     0.05602    -0.07622    -0.00553
           HZ12             0.08004     0.00178    -0.05691    -0.05393     0.05118
           HX13            -0.01373     0.00156     0.01040     0.03685     0.04699
           HY13             0.19830    -0.02126     0.03391    -0.01638     0.04690
           HZ13             0.04338    -0.00516    -0.06745    -0.04585     0.00083
           HX14             0.01946     0.00555     0.03739    -0.03866    -0.01897
           HY14             0.07233    -0.09967    -0.08783     0.24908     0.13336
           HZ14             0.01224    -0.03074    -0.10497    -0.02578    -0.02256
           HX15             0.04405    -0.06447    -0.05510     0.02893     0.03429
           HY15            -0.04682    -0.03602    -0.03145     0.02975    -0.05067
           HZ15             0.01851    -0.03959    -0.13488     0.01151     0.02439
           HX16             0.04243    -0.07784    -0.07390     0.02801     0.03727
           HY16            -0.08117     0.04378     0.05373    -0.01451    -0.07903
           HZ16             0.03597    -0.01756    -0.08210    -0.02070    -0.01400
           HX17             0.07795     0.38456    -0.11663     0.14032     0.02396
           HY17             0.03241     0.04858    -0.01935     0.02171     0.02361
           HZ17            -0.04202    -0.01622     0.09852     0.03301    -0.02198
           HX18            -0.06413    -0.21833     0.15233    -0.21740    -0.03517
           HY18             0.00527    -0.03199     0.02559    -0.03013     0.01823
           HZ18             0.04424     0.00542    -0.08335    -0.03300     0.03501
           HX19             0.06838     0.38739    -0.02668     0.00107    -0.01048
           HY19            -0.01787     0.07385     0.05824     0.01946     0.07386
           HZ19            -0.05845    -0.00679     0.11864     0.05138     0.03645
           HX20             0.01025    -0.00054    -0.01343     0.05343    -0.04556
           HY20            -0.29799     0.08478    -0.09694    -0.27589     0.05457
           HZ20             0.08555    -0.02707     0.01728     0.07457    -0.10396

                              6 A         7 A         8 A         9 A        10 A  
 Wavenumbers [cm-1]          458.37      471.39      532.93      598.41      660.41
 Intensities [km/mol]          0.00        0.00        0.00        0.00        0.00
 Intensities [relative]        0.00        0.00        0.00        0.00        0.00
           OX1             -0.00100     0.03884     0.00705     0.00715    -0.03198
           OY1             -0.01954    -0.00403    -0.01081    -0.07741    -0.00184
           OZ1              0.03897     0.00267     0.07299    -0.01877     0.00244
           CX2              0.02175    -0.13485     0.00887     0.02391     0.18950
           CY2             -0.03204    -0.03224    -0.04812    -0.02809     0.02808
           CZ2             -0.02435     0.00437    -0.07091     0.10109    -0.02216
           OX3             -0.00330     0.04306     0.00452    -0.02182    -0.04179
           OY3             -0.02597     0.00245    -0.07482     0.09283    -0.01127
           OZ3             -0.03655    -0.02355    -0.03638    -0.07275     0.00431
           CX4             -0.00367    -0.02066    -0.02098     0.00023    -0.06556
           CY4              0.04218     0.00658     0.11383     0.03780    -0.01188
           CZ4             -0.01112     0.00149    -0.04539     0.09182     0.00254
           CX5             -0.00853    -0.01886    -0.01736    -0.01330    -0.08747
           CY5              0.06793     0.01484     0.10279     0.07761    -0.01714
           CZ5             -0.03270    -0.00161    -0.01943     0.02597     0.01100
           CX6             -0.02860     0.16576     0.00046     0.00358     0.11690
           CY6              0.02040     0.03530    -0.03922    -0.04730     0.02479
           CZ6             -0.02527    -0.01474    -0.01118    -0.00726    -0.00553
           OX7              0.02396    -0.04917    -0.00169    -0.00187    -0.02584
           OY7              0.01241     0.00988    -0.03782    -0.01293     0.01040
           OZ7              0.00100     0.00619    -0.01504    -0.06235     0.00473
           CX8              0.05925     0.02251    -0.01331     0.00520     0.03890
           CY8              0.00565     0.00024    -0.02445    -0.04949     0.00006
           CZ8             -0.04118    -0.01055     0.05965     0.00825    -0.00855
           NX9             -0.06459    -0.01689     0.03979    -0.00517    -0.01026
           NY9             -0.09219    -0.04101     0.03763     0.00734    -0.01967
           NZ9             -0.01405    -0.00102     0.05259    -0.01671    -0.00714
           CX10            -0.02064    -0.01364     0.00012     0.00686    -0.00807
           CY10             0.01218     0.00538    -0.01255     0.00484     0.00042
           CZ10             0.11376     0.03162    -0.02796    -0.01457     0.01104
           HX11             0.02257     0.00848    -0.02322    -0.00085     0.00192
           HY11             0.05169     0.02725    -0.03169    -0.00221     0.01094
           HZ11             0.12201     0.02558    -0.04483    -0.01213     0.00758
           HX12            -0.10281    -0.04828     0.04736     0.01041    -0.02499
           HY12            -0.02073    -0.00051     0.00686     0.00208    -0.00420
           HZ12             0.25828     0.07819    -0.11279    -0.01237     0.03698
           HX13             0.08688     0.00684    -0.07730     0.00758     0.00425
           HY13             0.10761     0.03469    -0.06570     0.00499     0.01777
           HZ13             0.10497     0.03353    -0.01637    -0.01500     0.01227
           HX14            -0.05935    -0.01651     0.02970     0.00252    -0.00734
           HY14            -0.03757    -0.01104    -0.00123     0.09469     0.07109
           HZ14            -0.01108     0.00640     0.06137     0.00016     0.01977
           HX15             0.18612    -0.05003    -0.06031    -0.00037    -0.03708
           HY15             0.25603    -0.20464    -0.12358    -0.07007    -0.20404
           HZ15             0.03297     0.02932     0.03927     0.01429     0.01832
           HX16             0.26233    -0.12813    -0.08348    -0.00765    -0.11414
           HY16            -0.15658     0.16555     0.01776    -0.04694     0.16112
           HZ16            -0.16893    -0.06951     0.14486     0.03578    -0.04411
           HX17            -0.03968     0.25694    -0.03270    -0.00980    -0.20839
           HY17             0.06157     0.05180     0.15158     0.08151    -0.03565
           HZ17             0.05809    -0.00341     0.06148     0.21173     0.00526
           HX18             0.02533    -0.26772    -0.00110    -0.00049    -0.00068
           HY18             0.07673    -0.01939     0.15281     0.10021    -0.00788
           HZ18            -0.02711     0.01957     0.09796     0.07629    -0.00353
           HX19            -0.01013     0.01539    -0.02648     0.04128    -0.05923
           HY19             0.06787     0.00871     0.22137    -0.31475     0.00717
           HZ19             0.03930     0.00457     0.07420    -0.01858     0.00451
           HX20            -0.01897    -0.06504     0.02048    -0.02381    -0.02552
           HY20             0.01390     0.02710     0.00888     0.06431     0.01005
           HZ20            -0.01914    -0.00308    -0.00537    -0.05173    -0.00104

                             11 A        12 A        13 A        14 A        15 A  
 Wavenumbers [cm-1]          748.19      841.70     1009.90     1036.04     1090.83
 Intensities [km/mol]          0.00        0.00        0.00        0.00        0.00
 Intensities [relative]        0.00        0.00        0.00        0.00        0.00
           OX1              0.00026    -0.00077     0.00713     0.00388     0.00033
           OY1              0.00113     0.00522     0.00137    -0.02174    -0.00658
           OZ1              0.00259    -0.00303    -0.00064     0.01001     0.00311
           CX2             -0.01288    -0.01343    -0.07799    -0.00146     0.01280
           CY2             -0.01657     0.00352    -0.01154    -0.00139     0.00157
           CZ2             -0.05337     0.01109     0.00567     0.00680    -0.00043
           OX3              0.00693     0.00458     0.01389    -0.00073    -0.00238
           OY3             -0.03945     0.00760     0.00136     0.00767     0.00073
           OZ3             -0.03065     0.01165    -0.00174    -0.00332    -0.00081
           CX4              0.00084     0.01606     0.13761    -0.00189    -0.03540
           CY4              0.03815    -0.02437     0.02066     0.03831     0.00710
           CZ4              0.00155    -0.00656    -0.01078    -0.01204    -0.00120
           CX5              0.01962    -0.00784    -0.11418     0.00708     0.06828
           CY5             -0.03689     0.02112    -0.01813    -0.03878    -0.00409
           CZ5              0.13582    -0.06804     0.01486     0.07148     0.01608
           CX6             -0.01055    -0.05076    -0.00225     0.00608    -0.09230
           CY6             -0.02478     0.03506     0.00254    -0.04924    -0.00050
           CZ6              0.09983    -0.02743     0.00308    -0.01440     0.01599
           OX7              0.00239     0.01767    -0.00259     0.01226     0.00752
           OY7              0.07280     0.02202     0.00614    -0.08669     0.02581
           OZ7              0.00503     0.01157    -0.00336    -0.03773    -0.01788
           CX8              0.00042     0.01706     0.05943    -0.01950     0.11316
           CY8             -0.05626    -0.00989    -0.00546     0.17985    -0.03180
           CZ8             -0.01420     0.03963    -0.02236    -0.04114    -0.08498
           NX9             -0.03722     0.03356    -0.00135     0.01352     0.03912
           NY9             -0.02256    -0.10648     0.01543    -0.03187     0.05005
           NZ9             -0.08126     0.03153    -0.00552     0.01865     0.00022
           CX10             0.02955    -0.00714    -0.02348    -0.01377    -0.07891
           CY10             0.02284    -0.00172    -0.00646    -0.00901    -0.02723
           CZ10            -0.04290    -0.00213     0.01713     0.01775     0.06865
           HX11             0.03598     0.04212    -0.02882     0.02384    -0.09739
           HY11             0.02831     0.06880    -0.01538     0.03790    -0.04158
           HZ11            -0.03174    -0.13597     0.04732    -0.04684     0.07780
           HX12            -0.00356    -0.04599    -0.02375    -0.04390    -0.05900
           HY12             0.01145     0.03576    -0.02006     0.01312    -0.03725
           HZ12             0.01613    -0.02998     0.04047     0.00477     0.05835
           HX13             0.07014    -0.17378     0.02186    -0.08455    -0.07689
           HY13             0.05455     0.00090     0.00398    -0.00030    -0.03211
           HZ13            -0.04923     0.06046     0.00489     0.04794     0.07183
           HX14             0.00888     0.13485    -0.03687     0.07808    -0.01922
           HY14             0.34650     0.66912    -0.06175     0.16693    -0.05958
           HZ14            -0.04135     0.12556     0.03706    -0.03144     0.09295
           HX15             0.00332    -0.05753    -0.01929    -0.06036    -0.04887
           HY15            -0.02437    -0.09788    -0.18890     0.18404    -0.29402
           HZ15            -0.05683    -0.09841    -0.03879    -0.16810    -0.29249
           HX16             0.00278    -0.07995    -0.08864    -0.04990    -0.14620
           HY16            -0.05096     0.05726     0.13435     0.24264     0.17797
           HZ16            -0.04592     0.12850    -0.00433    -0.11250     0.05201
           HX17             0.00140    -0.00504    -0.39894    -0.02102     0.07533
           HY17             0.01730    -0.02187    -0.05576     0.02229     0.01244
           HZ17            -0.04481     0.00941     0.03020    -0.04880    -0.04168
           HX18             0.02414     0.01109     0.45429     0.02997    -0.20593
           HY18             0.00224    -0.01161     0.06063     0.03219    -0.03654
           HZ18             0.24072    -0.16670    -0.03355     0.25750     0.05854
           HX19            -0.01526     0.00664     0.03323     0.00488    -0.00666
           HY19             0.12085    -0.02351     0.00775    -0.02214    -0.00028
           HZ19             0.00247    -0.00340    -0.00284     0.01085     0.00404
           HX20            -0.08423    -0.09106     0.06155    -0.03005     0.10200
           HY20             0.13629    -0.03292    -0.00091    -0.06141    -0.04638
           HZ20            -0.00469    -0.01122    -0.00312    -0.01886    -0.00514

                             16 A        17 A        18 A        19 A        20 A  
 Wavenumbers [cm-1]         1105.84     1158.97     1171.49     1317.90     1340.71
 Intensities [km/mol]          0.00        0.00        0.00        0.00        0.00
 Intensities [relative]        0.00        0.00        0.00        0.00        0.00
           OX1             -0.01971    -0.00066    -0.00073    -0.00004    -0.00002
           OY1              0.10377     0.00029    -0.00067    -0.00024     0.00005
           OZ1             -0.05435    -0.00076     0.00072    -0.00026     0.00006
           CX2             -0.00152     0.00551     0.01093    -0.00004    -0.00085
           CY2             -0.01458    -0.00006     0.00213     0.00044     0.00012
           CZ2             -0.05354    -0.00286     0.00057    -0.00010     0.00019
           OX3              0.00631    -0.00167    -0.00284     0.00019     0.00017
           OY3             -0.06187    -0.00280     0.00121     0.00027     0.00030
           OZ3             -0.03088    -0.00251     0.00189     0.00010     0.00027
           CX4              0.02184    -0.03197    -0.06269     0.00085    -0.00670
           CY4             -0.07411     0.00103    -0.01161    -0.00650    -0.00403
           CZ4              0.15746     0.00955     0.00044     0.00124    -0.00009
           CX5              0.00027    -0.04506    -0.02191    -0.00099     0.01288
           CY5              0.04122    -0.01496     0.00180     0.00975     0.00704
           CZ5              0.02790     0.02456    -0.01067    -0.00634    -0.00602
           CX6             -0.00556     0.04740    -0.04416     0.00233    -0.06363
           CY6             -0.00932     0.02077    -0.01514    -0.01499    -0.01532
           CZ6             -0.01815    -0.00151     0.00308     0.00332     0.00829
           OX7              0.00347    -0.01351     0.00642    -0.00059     0.00827
[...]
           HY18            -0.30330    -0.00003    -0.00045
           HZ18             0.12321     0.00009     0.00134
           HX19            -0.00019    -0.00001     0.08049
           HY19             0.00077    -0.00001    -0.00678
           HZ19            -0.00076     0.00006     0.96262
           HX20            -0.00060    -0.00204    -0.00005
           HY20             0.00140     0.01226     0.00017
           HZ20            -0.00477    -0.01887    -0.00030


 Normal Modes of imaginary frequencies

                                  1           2           3           4           5
 Wavenumbers [cm-1]          299.58      283.83      182.83      149.80      128.77
 Intensities [km/mol]          0.00        0.00        0.00        0.00        0.00
 Intensities [relative]        0.00        0.00        0.00        0.00        0.00
           OX1             -0.06973     0.00665     0.12732    -0.04894     0.03440
           OY1             -0.00883     0.00309     0.01998     0.02435     0.02101
           OZ1              0.00598     0.00039    -0.00313     0.11173     0.03964
           CX2             -0.01552     0.00245    -0.01949    -0.00651     0.02260
           CY2             -0.00103     0.00317    -0.00528    -0.00872    -0.00112
           CZ2              0.00078     0.00183    -0.00104    -0.00652    -0.01831
           OX3              0.07768    -0.00606    -0.10506    -0.00877     0.02265
           OY3              0.01254     0.00041    -0.01114     0.05104     0.03050
           OZ3             -0.00697     0.00448    -0.00305    -0.08978    -0.06196
           CX4             -0.08976     0.00859    -0.04359     0.02642     0.00590
           CY4             -0.01234     0.00503    -0.01635    -0.08007    -0.03761
           CZ4              0.00720     0.00226     0.00049    -0.00926    -0.01779
           CX5             -0.01681    -0.00860     0.00701     0.03383     0.00280
           CY5             -0.00233     0.00311    -0.00915    -0.07910    -0.03410
           CZ5              0.00215     0.00615    -0.00636    -0.00754    -0.02427
           CX6             -0.00458    -0.00598    -0.00618     0.03513    -0.03670
           CY6             -0.00303    -0.00078     0.00235    -0.03754    -0.01441
           CZ6              0.00046     0.00447    -0.00277    -0.00554    -0.01821
           OX7              0.03532     0.01412    -0.08140    -0.00765    -0.01097
           OY7              0.00395     0.01148    -0.00765    -0.00694    -0.01178
           OZ7             -0.00269    -0.00165    -0.00295    -0.04714    -0.02702
           CX8             -0.01672    -0.01993     0.06428     0.06945    -0.11774
           CY8             -0.00570    -0.00095     0.02154     0.00054    -0.01941
           CZ8             -0.00272    -0.00103     0.01049     0.04320     0.00183
           NX9              0.01604     0.01961    -0.00586    -0.01315    -0.01748
           NY9             -0.01042    -0.02461     0.04624     0.03625     0.03895
           NZ9             -0.00070     0.00699     0.00266     0.02843    -0.01144
           CX10             0.00882    -0.00463     0.03366    -0.05554     0.08927
           CY10             0.01650     0.00233    -0.05000     0.05102     0.00931
           CZ10             0.00376    -0.01982     0.00352    -0.02454     0.12344
           HX11            -0.00360    -0.24843    -0.04932    -0.06372     0.06173
           HY11             0.01326    -0.14594    -0.12070     0.05217    -0.02272
           HZ11            -0.04796    -0.48817    -0.02596    -0.07838     0.16769
           HX12             0.02598     0.30973     0.12785    -0.03072     0.08841
           HY12            -0.01432    -0.33325    -0.11147     0.04183    -0.03161
           HZ12             0.04219     0.26490     0.01771    -0.03402     0.20144
           HX13            -0.00039    -0.08598     0.05471    -0.10945     0.20755
           HY13             0.07326     0.53003     0.01175     0.06995     0.06203
           HZ13             0.02422     0.16932     0.01469     0.00083     0.09647
           HX14             0.01343     0.00443     0.01059    -0.04015     0.04309
           HY14            -0.05767    -0.13642     0.18152     0.06719     0.12180
           HZ14            -0.01434    -0.00811     0.02528     0.09076    -0.09213
           HX15            -0.02771    -0.03273     0.09961     0.10609    -0.17871
           HY15            -0.02059    -0.01695     0.08660     0.05185    -0.14133
           HZ15            -0.02006    -0.02263     0.04115     0.09529    -0.03493
           HX16            -0.03206    -0.03747     0.12246     0.12593    -0.21761
           HY16             0.00648     0.01490    -0.03506    -0.05061     0.05711
           HZ16             0.00671    -0.00005     0.00865     0.02659     0.07393
           HX17            -0.14853     0.01945    -0.09869     0.03671    -0.01814
           HY17            -0.02093     0.00603    -0.02425    -0.08620    -0.04236
           HZ17             0.01139     0.00103     0.00382    -0.03040    -0.02067
           HX18             0.04103    -0.01586     0.04183     0.02000     0.02937
           HY18             0.00596     0.00257    -0.00614    -0.08776    -0.03613
           HZ18            -0.00213     0.00793    -0.01405    -0.02351    -0.04081
           HX19             0.78342    -0.11823     0.37034    -0.02908    -0.06773
           HY19             0.11691    -0.01573     0.06467     0.13973     0.06396
           HZ19            -0.06450     0.01070    -0.02329     0.10888     0.04749
           HX20             0.04236     0.03403    -0.08448    -0.02013    -0.03266
           HY20             0.01533     0.05710    -0.03025     0.04514    -0.04274
           HZ20            -0.00600    -0.01007     0.00842    -0.02974    -0.01260

                                  6
 Wavenumbers [cm-1]           61.72
 Intensities [km/mol]          0.00
 Intensities [relative]        0.00
           OX1             -0.09676
           OY1             -0.01987
           OZ1             -0.02694
           CX2             -0.00350
           CY2              0.00313
           CZ2             -0.00481
           OX3             -0.02079
           OY3             -0.01094
           OZ3              0.01273
           CX4              0.04859
           CY4              0.02618
           CZ4             -0.01017
           CX5              0.15717
           CY5              0.03624
           CZ5             -0.01937
           CX6              0.07460
           CY6              0.02092
           CZ6             -0.00710
           OX7             -0.00647
           OY7             -0.02373
           OZ7              0.02557
           CX8             -0.00997
           CY8             -0.00005
           CZ8              0.00063
           NX9             -0.07701
           NY9              0.04722
           NZ9             -0.00841
           CX10            -0.01675
           CY10            -0.05569
           CZ10             0.02414
           HX11            -0.09978
           HY11            -0.12874
           HZ11             0.00779
           HX12             0.07540
           HY12            -0.12094
           HZ12             0.04846
           HX13             0.03273
           HY13             0.01013
           HZ13             0.02638
           HX14            -0.04966
           HY14             0.21287
           HZ14             0.00858
           HX15            -0.02010
           HY15            -0.06610
           HZ15             0.06024
           HX16            -0.04737
           HY16             0.03976
           HZ16            -0.00270
           HX17            -0.03898
           HY17             0.01557
           HZ17            -0.00054
           HX18             0.23143
           HY18             0.04911
           HZ18            -0.01935
           HX19             0.06712
           HY19            -0.02753
           HZ19            -0.04015
           HX20            -0.09296
           HY20            -0.14096
           HZ20             0.04661


 Normal Modes of low/zero frequencies

                                  1           2           3           4           5
 Wavenumbers [cm-1]            0.00        0.00        0.00        0.00        0.00
 Intensities [km/mol]          0.00        0.00        0.00        0.00        0.00
 Intensities [relative]        0.00        0.00        0.00        0.00        0.00
           OX1              0.00000     0.00000     0.00000     0.00000     0.15330
           OY1              0.01990     0.00225     0.03642     0.06741     0.01141
           OZ1             -0.01361     0.04586     0.07320     0.01019    -0.00560
           CX2             -0.01776    -0.03383     0.00431     0.05609     0.09130
           CY2              0.02112    -0.00890     0.03684     0.06955     0.00215
           CZ2             -0.00106     0.03068     0.07223    -0.01202    -0.00105
           OX3             -0.04643    -0.07858     0.01424     0.09979     0.06360
           OY3              0.01083    -0.00552     0.03862     0.08561    -0.00156
           OZ3              0.01011     0.02014     0.07092    -0.02956     0.00077
           CX4              0.00198    -0.01031    -0.00474     0.06070     0.05673
           CY4              0.03731    -0.02710     0.03479     0.04915    -0.00365
           CZ4             -0.00202     0.02760     0.07295    -0.01349     0.00179
           CX5              0.03413     0.03955    -0.01597     0.01321     0.08546
           CY5              0.04907    -0.03189     0.03280     0.03115    -0.00024
           CZ5             -0.01438     0.03882     0.07447     0.00559     0.00012
           CX6              0.05193     0.06014    -0.02431     0.02021     0.04990
           CY6              0.06428    -0.04982     0.03093     0.01231    -0.00644
           CZ6             -0.01478     0.03508     0.07514     0.00314     0.00316
           OX7              0.08193     0.10681    -0.03476    -0.02473     0.07767
           OY7              0.07502    -0.05414     0.02911    -0.00416    -0.00328
           OZ7             -0.02650     0.04566     0.07658     0.02119     0.00161
           CX8              0.03848     0.03119    -0.02206     0.07854    -0.02157
           CY8              0.06920    -0.06581     0.03092     0.01005    -0.01765
           CZ8             -0.00233     0.01870     0.07438    -0.01988     0.00866
           NX9              0.06620     0.06918    -0.03326     0.06135    -0.03351
           NY9              0.08747    -0.07749     0.02808    -0.01632    -0.01619
           NZ9             -0.00697     0.02303     0.07493    -0.01263     0.00794
           CX10             0.06901     0.06818    -0.03586     0.08268    -0.07038
           CY10             0.11985    -0.04683     0.02004    -0.08240     0.03280
           CZ10             0.01516     0.03886     0.06677    -0.01993    -0.01610
           HX11             0.08628     0.09717    -0.04123     0.04669    -0.03876
           HY11             0.13552    -0.02367     0.01565    -0.11752     0.06403
           HZ11             0.01544     0.05901     0.06364    -0.00510    -0.03142
           HX12             0.04591     0.03147    -0.02806     0.12103    -0.09756
           HY12             0.12358    -0.02613     0.01810    -0.09649     0.05396
           HZ12             0.03306     0.03962     0.06199    -0.03485    -0.02648
           HX13             0.07726     0.07540    -0.04043     0.09697    -0.10393
           HY13             0.12539    -0.06780     0.02020    -0.08383     0.01750
           HZ13             0.01386     0.02984     0.06848    -0.02555    -0.00859
           HX14             0.06938     0.07135    -0.03520     0.06975    -0.05091
           HY14             0.07634    -0.11118     0.03221     0.01512    -0.05394
           HZ14            -0.01729     0.00594     0.08021    -0.01649     0.02647
           HX15             0.02672     0.01289    -0.01796     0.09618    -0.03248
           HY15             0.04669    -0.09580     0.03702     0.05926    -0.05955
           HZ15            -0.01128    -0.00209     0.07987    -0.02769     0.02922
           HX16             0.02043     0.00166    -0.01621     0.11249    -0.04894
           HY16             0.08061    -0.03853     0.02711    -0.01945     0.01449
           HZ16             0.01795     0.02490     0.06816    -0.03279    -0.00711
           HX17            -0.01229    -0.03763    -0.00132     0.10640     0.00593
           HY17             0.03857    -0.03616     0.03508     0.05044    -0.01101
           HZ17             0.00827     0.01532     0.07213    -0.03158     0.00540
           HX18             0.04780     0.06602    -0.01916    -0.03203     0.13637
           HY18             0.04746    -0.02258     0.03256     0.03035     0.00711
           HZ18            -0.02453     0.05100     0.07526     0.02349    -0.00349
           HX19            -0.01403    -0.01736     0.00624    -0.00020     0.17311
           HY19             0.00919     0.01374     0.03781     0.08111     0.01476
           HZ19            -0.01234     0.04712     0.07268     0.01004    -0.00724
           HX20             0.08682     0.10834    -0.03829    -0.00322     0.03764
           HY20             0.08434    -0.06798     0.02813    -0.01463    -0.00966
           HZ20            -0.02280     0.03881     0.07666     0.01287     0.00474

                                  6
 Wavenumbers [cm-1]            0.00
 Intensities [km/mol]          0.00
 Intensities [relative]        0.00
           OX1              0.00000
           OY1              0.10256
           OZ1             -0.00378
           CX2             -0.04993
           CY2              0.08589
           CZ2             -0.02680
           OX3             -0.09050
           OY3              0.09496
           OZ3             -0.04497
           CX4             -0.05165
           CY4              0.05298
           CZ4             -0.02834
           CX5             -0.00745
           CY5              0.04129
           CZ5             -0.00858
           CX6             -0.01144
           CY6              0.00915
           CZ6             -0.01114
           OX7              0.03034
           OY7             -0.00145
           OZ7              0.00756
           CX8             -0.06281
           CY8             -0.01603
           CZ8             -0.03500
           NX9             -0.04500
           NY9             -0.04033
           NZ9             -0.02749
           CX10            -0.06291
           CY10            -0.00890
           CZ10            -0.03488
           HX11            -0.03021
           HY11             0.01838
           HZ11            -0.01943
           HX12            -0.09828
           HY12             0.01962
           HZ12            -0.05025
           HX13            -0.07420
           HY13            -0.04155
           HZ13            -0.04075
           HX14            -0.05182
           HY14            -0.08472
           HZ14            -0.03162
           HX15            -0.07920
           HY15            -0.05047
           HZ15            -0.04323
           HX16            -0.09384
           HY16             0.01895
           HZ16            -0.04825
           HX17            -0.09232
           HY17             0.03932
           HZ17            -0.04709
           HX18             0.03274
           HY18             0.05544
           HZ18             0.00997
           HX19            -0.00140
           HY19             0.12356
           HZ19            -0.00393
           HX20             0.01251
           HY20            -0.02528
           HZ20            -0.00108


 Zero point energy:  0.18843539 [H]    41356.79 [1/CM]      494.74 [KJ/MOL]
 Frequency information read from record  5400.2

 Dump information in style MOLDEN to test.molden                                                                     

 Molecular orbitals read from record     2100.2  Type=RHF/CANONICAL (state 1.1)
 Occupation numbers read from record     2100.2  Type=RHF/RHF (state 1.1)
 Orbital energies read from record       2100.2  Type=RHF/CANONICAL (state 1.1)
 Redundancy group numbers read from rec  2100.2  Type=RHF/RHF (state 1.1)
 
 DUMP ORBITAL  1.1 AS ORBITAL    1  occ=    2.0000  eig=  -20.6167  GROUP=   2
 DUMP ORBITAL  2.1 AS ORBITAL    2  occ=    2.0000  eig=  -20.4576  GROUP=   2
 DUMP ORBITAL  3.1 AS ORBITAL    3  occ=    2.0000  eig=  -20.4323  GROUP=   2
 DUMP ORBITAL  4.1 AS ORBITAL    4  occ=    2.0000  eig=  -15.5829  GROUP=   2
 DUMP ORBITAL  5.1 AS ORBITAL    5  occ=    2.0000  eig=  -11.4191  GROUP=   2
 DUMP ORBITAL  6.1 AS ORBITAL    6  occ=    2.0000  eig=  -11.3450  GROUP=   2
 DUMP ORBITAL  7.1 AS ORBITAL    7  occ=    2.0000  eig=  -11.3275  GROUP=   2
 DUMP ORBITAL  8.1 AS ORBITAL    8  occ=    2.0000  eig=  -11.2822  GROUP=   2
 DUMP ORBITAL  9.1 AS ORBITAL    9  occ=    2.0000  eig=  -11.2603  GROUP=   2
 DUMP ORBITAL 10.1 AS ORBITAL   10  occ=    2.0000  eig=  -11.2498  GROUP=   2
 DUMP ORBITAL 11.1 AS ORBITAL   11  occ=    2.0000  eig=   -1.6491  GROUP=   2
 DUMP ORBITAL 12.1 AS ORBITAL   12  occ=    2.0000  eig=   -1.5505  GROUP=   2
 DUMP ORBITAL 13.1 AS ORBITAL   13  occ=    2.0000  eig=   -1.4434  GROUP=   2
 DUMP ORBITAL 14.1 AS ORBITAL   14  occ=    2.0000  eig=   -1.3949  GROUP=   2
 DUMP ORBITAL 15.1 AS ORBITAL   15  occ=    2.0000  eig=   -1.2559  GROUP=   2
 DUMP ORBITAL 16.1 AS ORBITAL   16  occ=    2.0000  eig=   -1.1628  GROUP=   2
 DUMP ORBITAL 17.1 AS ORBITAL   17  occ=    2.0000  eig=   -1.0855  GROUP=   2
 DUMP ORBITAL 18.1 AS ORBITAL   18  occ=    2.0000  eig=   -1.0342  GROUP=   2
 DUMP ORBITAL 19.1 AS ORBITAL   19  occ=    2.0000  eig=   -0.9455  GROUP=   2
 DUMP ORBITAL 20.1 AS ORBITAL   20  occ=    2.0000  eig=   -0.9179  GROUP=   2
 DUMP ORBITAL 21.1 AS ORBITAL   21  occ=    2.0000  eig=   -0.8963  GROUP=   2
 DUMP ORBITAL 22.1 AS ORBITAL   22  occ=    2.0000  eig=   -0.8618  GROUP=   2
 DUMP ORBITAL 23.1 AS ORBITAL   23  occ=    2.0000  eig=   -0.8278  GROUP=   2
 DUMP ORBITAL 24.1 AS ORBITAL   24  occ=    2.0000  eig=   -0.7897  GROUP=   2
 DUMP ORBITAL 25.1 AS ORBITAL   25  occ=    2.0000  eig=   -0.7798  GROUP=   2
 DUMP ORBITAL 26.1 AS ORBITAL   26  occ=    2.0000  eig=   -0.7461  GROUP=   2
 DUMP ORBITAL 27.1 AS ORBITAL   27  occ=    2.0000  eig=   -0.7361  GROUP=   2
 DUMP ORBITAL 28.1 AS ORBITAL   28  occ=    2.0000  eig=   -0.7335  GROUP=   2
 DUMP ORBITAL 29.1 AS ORBITAL   29  occ=    2.0000  eig=   -0.7110  GROUP=   2
 DUMP ORBITAL 30.1 AS ORBITAL   30  occ=    2.0000  eig=   -0.7097  GROUP=   2
 DUMP ORBITAL 31.1 AS ORBITAL   31  occ=    2.0000  eig=   -0.6874  GROUP=   2
 DUMP ORBITAL 32.1 AS ORBITAL   32  occ=    2.0000  eig=   -0.6845  GROUP=   2
 DUMP ORBITAL 33.1 AS ORBITAL   33  occ=    2.0000  eig=   -0.6530  GROUP=   2
 DUMP ORBITAL 34.1 AS ORBITAL   34  occ=    2.0000  eig=   -0.6099  GROUP=   2
 DUMP ORBITAL 35.1 AS ORBITAL   35  occ=    2.0000  eig=   -0.5583  GROUP=   2
 DUMP ORBITAL 36.1 AS ORBITAL   36  occ=    2.0000  eig=   -0.5423  GROUP=   2
 DUMP ORBITAL 37.1 AS ORBITAL   37  occ=    2.0000  eig=   -0.5053  GROUP=   2
 DUMP ORBITAL 38.1 AS ORBITAL   38  occ=    2.0000  eig=   -0.4908  GROUP=   2

 Total charge:      76.000000
 Frequency information read from record  5400.2

 **********************************************************************************************************************************

 RHF/STO-3G energy=   -505.292741267182

        RHF-SCF 
   -505.29274127
 **********************************************************************************************************************************
 Molpro calculation terminated
 Variable memory released
