 Entering Gaussian System, Link 0=/usr/local/lib/g03/g03
 Initial command:
 /usr/local/lib/g03/l1.exe /tmp/g034756/Gau-4760.inp -scrdir=/tmp/g034756/
 Entering Link 1 = /usr/local/lib/g03/l1.exe PID=      4762.
  
 Copyright (c) 1988,1990,1992,1993,1995,1998,2003,2004, Gaussian, Inc.
                  All Rights Reserved.
  
 This is the Gaussian(R) 03 program.  It is based on the
 the Gaussian(R) 98 system (copyright 1998, Gaussian, Inc.),
 the Gaussian(R) 94 system (copyright 1995, Gaussian, Inc.),
 the Gaussian 92(TM) system (copyright 1992, Gaussian, Inc.),
 the Gaussian 90(TM) system (copyright 1990, Gaussian, Inc.),
 the Gaussian 88(TM) system (copyright 1988, Gaussian, Inc.),
 the Gaussian 86(TM) system (copyright 1986, Carnegie Mellon
 University), and the Gaussian 82(TM) system (copyright 1983,
 Carnegie Mellon University). Gaussian is a federally registered
 trademark of Gaussian, Inc.
  
 This software contains proprietary and confidential information,
 including trade secrets, belonging to Gaussian, Inc.
  
 This software is provided under written license and may be
 used, copied, transmitted, or stored only in accord with that
 written license.
  
 The following legend is applicable only to US Government
 contracts under FAR:
  
                    RESTRICTED RIGHTS LEGEND
  
 Use, reproduction and disclosure by the US Government is
 subject to restrictions as set forth in subparagraphs (a)
 and (c) of the Commercial Computer Software - Restricted
 Rights clause in FAR 52.227-19.
  
 Gaussian, Inc.
 340 Quinnipiac St., Bldg. 40, Wallingford CT 06492
  
  
 ---------------------------------------------------------------
 Warning -- This program may not be used in any manner that
 competes with the business of Gaussian, Inc. or will provide
 assistance to any competitor of Gaussian, Inc.  The licensee
 of this program is prohibited from giving any competitor of
 Gaussian, Inc. access to this program.  By using this program,
 the user acknowledges that Gaussian, Inc. is engaged in the
 business of creating and licensing software in the field of
 computational chemistry and represents and warrants to the
 licensee that it is not a competitor of Gaussian, Inc. and that
 it will not use this program in any manner prohibited above.
 ---------------------------------------------------------------
  

 Cite this work as:
 Gaussian 03, Revision D.01,
 M. J. Frisch, G. W. Trucks, H. B. Schlegel, G. E. Scuseria, 
 M. A. Robb, J. R. Cheeseman, J. A. Montgomery, Jr., T. Vreven, 
 K. N. Kudin, J. C. Burant, J. M. Millam, S. S. Iyengar, J. Tomasi, 
 V. Barone, B. Mennucci, M. Cossi, G. Scalmani, N. Rega, 
 G. A. Petersson, H. Nakatsuji, M. Hada, M. Ehara, K. Toyota, 
 R. Fukuda, J. Hasegawa, M. Ishida, T. Nakajima, Y. Honda, O. Kitao, 
 H. Nakai, M. Klene, X. Li, J. E. Knox, H. P. Hratchian, J. B. Cross, 
 V. Bakken, C. Adamo, J. Jaramillo, R. Gomperts, R. E. Stratmann, 
 O. Yazyev, A. J. Austin, R. Cammi, C. Pomelli, J. W. Ochterski, 
 P. Y. Ayala, K. Morokuma, G. A. Voth, P. Salvador, J. J. Dannenberg, 
 V. G. Zakrzewski, S. Dapprich, A. D. Daniels, M. C. Strain, 
 O. Farkas, D. K. Malick, A. D. Rabuck, K. Raghavachari, 
 J. B. Foresman, J. V. Ortiz, Q. Cui, A. G. Baboul, S. Clifford, 
 J. Cioslowski, B. B. Stefanov, G. Liu, A. Liashenko, P. Piskorz, 
 I. Komaromi, R. L. Martin, D. J. Fox, T. Keith, M. A. Al-Laham, 
 C. Y. Peng, A. Nanayakkara, M. Challacombe, P. M. W. Gill, 
 B. Johnson, W. Chen, M. W. Wong, C. Gonzalez, and J. A. Pople, 
 Gaussian, Inc., Wallingford CT, 2004.
 
 ******************************************
 Gaussian 03:  IA32L-G03RevD.01 13-Oct-2005
                12-Aug-2013 
 ******************************************
 %Mem=1GB
 -------------------------------------------------------
 #P MP2/6-31G** freq=Numer # pop=full gfinput iop(6/7=3)
 -------------------------------------------------------
 1/10=4,30=1,38=11/1,3,6;
 2/17=6,18=5,40=1/2;
 3/5=1,6=6,7=101,11=9,16=1,24=10,25=1,30=1/1,2,3;
 4/69=2/1;
 5/5=2,38=5/2;
 8/6=4,10=2/1;
 9/15=2,16=-3/6;
 10/5=1/2;
 6/7=3,22=-1/1;
 7/12=2/1,2,3,16;
 1/38=10/6(3);
 7/8=1,25=1,44=-1/16;
 1/10=4,30=1,38=10/3;
 99//99;
 3/5=1,6=6,7=101,11=9,16=1,25=1,30=1/1,2,3;
 4/5=5,16=3,69=2/1;
 5/5=2,38=5/2;
 8/6=4,10=2/1;
 9/15=2,16=-3/6;
 10/5=1/2;
 6/7=3,22=-1/1;
 7/7=1,12=2/1,2,3,16;
 1/38=10/6(-8);
 7/8=1,25=1,44=-1/16;
 1/10=4,30=1,38=10/3;
 99//99;
 Leave Link    1 at Mon Aug 12 23:39:36 2013, MaxMem=  134217728 cpu:       0.2
 (Enter /usr/local/lib/g03/l101.exe)
 ---
 job
 ---
 Symbolic Z-matrix:
 Charge =  0 Multiplicity = 2
 H
 
                    Isotopes and Nuclear Properties:
 (Nuclear quadrupole moments (NQMom) in fm**2, nuclear magnetic moments (NMagM)
  in nuclear magnetons)

  Atom         1
 IAtWgt=           1
 AtmWgt=   1.0078250
 NucSpn=           1
 AtZEff=   0.0000000
 NQMom=    0.0000000
 NMagM=    2.7928460
 Leave Link  101 at Mon Aug 12 23:39:47 2013, MaxMem=  134217728 cpu:       0.1
 (Enter /usr/local/lib/g03/l103.exe)

 GradGradGradGradGradGradGradGradGradGradGradGradGradGradGradGradGradGrad
 Berny optimization.
 Initialization pass.
 Trust Radius=3.00D-01 FncErr=1.00D-07 GrdErr=1.00D-07
 Number of steps in this run=   2 maximum allowed number of steps=   2.
 GradGradGradGradGradGradGradGradGradGradGradGradGradGradGradGradGradGrad

 Leave Link  103 at Mon Aug 12 23:39:58 2013, MaxMem=  134217728 cpu:       0.1
 (Enter /usr/local/lib/g03/l106.exe)
 NDeriv=   3 NFrqRd=  0 LFDDif=       0
 Numerical evaluation of force-constants.
 Nuclear step= 0.001000 Angstroms, electric field step= 0.001890 atomic units.
 Leave Link  106 at Mon Aug 12 23:40:10 2013, MaxMem=  134217728 cpu:       0.0
 (Enter /usr/local/lib/g03/l202.exe)
                          Input orientation:                          
 ---------------------------------------------------------------------
 Center     Atomic     Atomic              Coordinates (Angstroms)
 Number     Number      Type              X           Y           Z
 ---------------------------------------------------------------------
    1          1             0        0.000000    0.000000    0.000000
 ---------------------------------------------------------------------
 Stoichiometry    H(2)
 Framework group  OH[O(H)]
 Deg. of freedom     0
 Full point group                 OH
 Largest Abelian subgroup         D2H     NOp   8
 Largest concise Abelian subgroup C1      NOp   1
                         Standard orientation:                         
 ---------------------------------------------------------------------
 Center     Atomic     Atomic              Coordinates (Angstroms)
 Number     Number      Type              X           Y           Z
 ---------------------------------------------------------------------
    1          1             0        0.000000    0.000000    0.000000
 ---------------------------------------------------------------------
 Leave Link  202 at Mon Aug 12 23:40:21 2013, MaxMem=  134217728 cpu:       0.1
 (Enter /usr/local/lib/g03/l301.exe)
 Standard basis: 6-31G(d,p) (6D, 7F)
 AO basis set in the form of general basis input:
      1 0
 S   3 1.00       0.000000000000
      0.1873113696D+02  0.3349460434D-01
      0.2825394365D+01  0.2347269535D+00
      0.6401216923D+00  0.8137573261D+00
 S   1 1.00       0.000000000000
      0.1612777588D+00  0.1000000000D+01
 P   1 1.00       0.000000000000
      0.1100000000D+01  0.1000000000D+01
 ****

 There are     2 symmetry adapted basis functions of AG  symmetry.
 There are     0 symmetry adapted basis functions of B1G symmetry.
 There are     0 symmetry adapted basis functions of B2G symmetry.
 There are     0 symmetry adapted basis functions of B3G symmetry.
 There are     0 symmetry adapted basis functions of AU  symmetry.
 There are     1 symmetry adapted basis functions of B1U symmetry.
 There are     1 symmetry adapted basis functions of B2U symmetry.
 There are     1 symmetry adapted basis functions of B3U symmetry.
 Integral buffers will be    262144 words long.
 Raffenetti 2 integral format.
 Two-electron integral symmetry is turned on.
     5 basis functions,     7 primitive gaussians,     5 cartesian basis functions
     1 alpha electrons        0 beta electrons
       nuclear repulsion energy         0.0000000000 Hartrees.
 IExCor=   0 DFT=F Ex=HF Corr=None ExCW=0 ScaHFX=  1.000000
 ScaDFX=  1.000000  1.000000  1.000000  1.000000
 IRadAn=      0 IRanWt=     -1 IRanGd=            0 ICorTp=0
 NAtoms=    1 NActive=    1 NUniq=    1 SFac= 7.50D-01 NAtFMM=   80 NAOKFM=F Big=F
 Leave Link  301 at Mon Aug 12 23:40:34 2013, MaxMem=  134217728 cpu:       0.0
 (Enter /usr/local/lib/g03/l302.exe)
 NPDir=0 NMtPBC=     1 NCelOv=     1 NCel=       1 NClECP=     1 NCelD=      1
         NCelK=      1 NCelE2=     1 NClLst=     1 CellRange=     0.0.
 One-electron integrals computed using PRISM.
 NBasis=     5 RedAO= T  NBF=     2     0     0     0     0     1     1     1
 NBsUse=     5 1.00D-06 NBFU=     2     0     0     0     0     1     1     1
 Leave Link  302 at Mon Aug 12 23:40:45 2013, MaxMem=  134217728 cpu:       0.1
 (Enter /usr/local/lib/g03/l303.exe)
 DipDrv:  MaxL=1.
 Leave Link  303 at Mon Aug 12 23:40:56 2013, MaxMem=  134217728 cpu:       0.0
 (Enter /usr/local/lib/g03/l401.exe)
 Harris functional with IExCor=  205 diagonalized for initial guess.
 ExpMin= 1.61D-01 ExpMax= 1.87D+01 ExpMxC= 1.87D+01 IAcc=1 IRadAn=         1 AccDes= 1.00D-06
 HarFok:  IExCor= 205 AccDes= 1.00D-06 IRadAn=         1 IDoV=1
 ScaDFX=  1.000000  1.000000  1.000000  1.000000
 Harris En=-0.458516026360045    
 Initial guess orbital symmetries:
 Alpha Orbitals:
       Occupied  (A1G)
       Virtual   (A1G) (T1U) (T1U) (T1U)
 Beta  Orbitals:
       Virtual   (A1G) (A1G) (T1U) (T1U) (T1U)
 The electronic state of the initial guess is 2-A1G.
 <S**2> of initial guess= 0.7500
 Leave Link  401 at Mon Aug 12 23:41:10 2013, MaxMem=  134217728 cpu:       0.1
 (Enter /usr/local/lib/g03/l502.exe)
 UHF open shell SCF:
 Requested convergence on RMS density matrix=1.00D-08 within 128 cycles.
 Requested convergence on MAX density matrix=1.00D-06.
 Requested convergence on             energy=1.00D-06.
 No special actions if energy rises.
 Using DIIS extrapolation, IDIIS=  1040.
 Integral symmetry usage will be decided dynamically.
 Keep R1 and R2 integrals in memory in canonical form, NReq=      819167.
 IEnd=     18822 IEndB=     18822 NGot= 134217728 MDV= 134215755
 LenX= 134215755
 Symmetry not used in FoFDir.
 MinBra= 0 MaxBra= 1 Meth= 1.
 IRaf=       0 NMat=   1 IRICut=       1 DoRegI=T DoRafI=F ISym2E= 0 JSym2E=0.

 Cycle   1  Pass 1  IDiag  1:
 E=-0.496138953346999    
 DIIS: error= 2.24D-02 at cycle   1 NSaved=   1.
 NSaved= 1 IEnMin= 1 EnMin=-0.496138953346999     IErMin= 1 ErrMin= 2.24D-02
 ErrMax= 2.24D-02 EMaxC= 1.00D-01 BMatC= 4.01D-03 BMatP= 4.01D-03
 IDIUse=3 WtCom= 7.76D-01 WtEn= 2.24D-01
 Coeff-Com:  0.100D+01
 Coeff-En:   0.100D+01
 Coeff:      0.100D+01
 Gap=     1.410 Goal=   None    Shift=    0.000
 GapD=    1.410 DampG=2.000 DampE=0.500 DampFc=1.0000 IDamp=-1.
 RMSDP=8.83D-03 MaxDP=5.01D-02              OVMax= 0.00D+00

 Cycle   2  Pass 1  IDiag  1:
 E=-0.498015988927604     Delta-E=       -0.001877035581 Rises=F Damp=F
 DIIS: error= 7.21D-03 at cycle   2 NSaved=   2.
 NSaved= 2 IEnMin= 2 EnMin=-0.498015988927604     IErMin= 2 ErrMin= 7.21D-03
 ErrMax= 7.21D-03 EMaxC= 1.00D-01 BMatC= 4.16D-04 BMatP= 4.01D-03
 IDIUse=3 WtCom= 9.28D-01 WtEn= 7.21D-02
 Coeff-Com: -0.475D+00 0.148D+01
 Coeff-En:   0.000D+00 0.100D+01
 Coeff:     -0.441D+00 0.144D+01
 Gap=     1.414 Goal=   None    Shift=    0.000
 RMSDP=4.03D-03 MaxDP=2.27D-02 DE=-1.88D-03 OVMax= 0.00D+00

 Cycle   3  Pass 1  IDiag  1:
 E=-0.498232792456902     Delta-E=       -0.000216803529 Rises=F Damp=F
 DIIS: error= 1.67D-04 at cycle   3 NSaved=   3.
 NSaved= 3 IEnMin= 3 EnMin=-0.498232792456902     IErMin= 3 ErrMin= 1.67D-04
 ErrMax= 1.67D-04 EMaxC= 1.00D-01 BMatC= 2.24D-07 BMatP= 4.16D-04
 IDIUse=3 WtCom= 9.98D-01 WtEn= 1.67D-03
 Large coefficients: NSaved=  3 BigCof=    0.00 CofMax=   10.00 Det= 2.32D-20
 Inversion failed.  Reducing to  2 matrices.
 Coeff-Com: -0.238D-01 0.102D+01
 Coeff-En:   0.000D+00 0.100D+01
 Coeff:     -0.237D-01 0.102D+01
 Gap=     1.414 Goal=   None    Shift=    0.000
 RMSDP=9.53D-05 MaxDP=5.34D-04 DE=-2.17D-04 OVMax= 0.00D+00

 Cycle   4  Pass 1  IDiag  1:
 E=-0.498232909201545     Delta-E=       -0.000000116745 Rises=F Damp=F
 DIIS: error= 9.01D-08 at cycle   4 NSaved=   3.
 NSaved= 3 IEnMin= 3 EnMin=-0.498232909201545     IErMin= 3 ErrMin= 9.01D-08
 ErrMax= 9.01D-08 EMaxC= 1.00D-01 BMatC= 6.50D-14 BMatP= 2.24D-07
 IDIUse=1 WtCom= 1.00D+00 WtEn= 0.00D+00
 Large coefficients: NSaved=  3 BigCof=    0.00 CofMax=   10.00 Det=-5.75D-24
 Inversion failed.  Reducing to  2 matrices.
 Coeff-Com: -0.539D-03 0.100D+01
 Coeff:     -0.539D-03 0.100D+01
 Gap=     1.414 Goal=   None    Shift=    0.000
 RMSDP=5.14D-08 MaxDP=2.87D-07 DE=-1.17D-07 OVMax= 0.00D+00

 Cycle   5  Pass 1  IDiag  1:
 E=-0.498232909201578     Delta-E=        0.000000000000 Rises=F Damp=F
 DIIS: error= 0.00D+00 at cycle   5 NSaved=   3.
 NSaved= 3 IEnMin= 3 EnMin=-0.498232909201578     IErMin= 3 ErrMin= 0.00D+00
 ErrMax= 0.00D+00 EMaxC= 1.00D-01 BMatC= 0.00D+00 BMatP= 6.50D-14
 IDIUse=1 WtCom= 1.00D+00 WtEn= 0.00D+00
 Coeff-Com:  0.000D+00 0.000D+00 0.100D+01
 Coeff:      0.000D+00 0.000D+00 0.100D+01
 Gap=     1.414 Goal=   None    Shift=    0.000
 RMSDP=2.63D-17 MaxDP=1.67D-16 DE=-3.35D-14 OVMax= 0.00D+00

 SCF Done:  E(UHF) = -0.498232909202     A.U. after    5 cycles
             Convg  =    0.2633D-16             -V/T =  1.9772
             S**2   =   0.7500
 KE= 5.098666670602D-01 PE=-1.008099576262D+00 EE= 5.551115123126D-17
 Annihilation of the first spin contaminant:
 S**2 before annihilation     0.7500,   after     0.7500
 Leave Link  502 at Mon Aug 12 23:41:20 2013, MaxMem=  134217728 cpu:       0.1
 (Enter /usr/local/lib/g03/l801.exe)
 Range of M.O.s used for correlation:     1     5
 NBasis=     5 NAE=     1 NBE=     0 NFC=     0 NFV=     0
 NROrb=      5 NOA=     1 NOB=     0 NVA=     4 NVB=     5
 *** There is no correlation energy for this system ***
 Leave Link  801 at Mon Aug 12 23:41:31 2013, MaxMem=  134217728 cpu:       0.0
 (Enter /usr/local/lib/g03/l906.exe)
 FulOut=F Deriv=T AODrv=T NAtomX=     1
   MMem=      253240  MDisk=           1 MDiskD=           1
  W3Min=          50 MinDsk=       50245 NBas6D=           5
 NBas2D=          18    NTT=          15    LW2=     2000000
    MDV=   134217353 MDiskM=      275452 NBas2p=          18
 Fully direct method using O(ONN) memory.
 IMap=   1
 JobTyp=2 Pass  1:  I=   1 to   1 NPSUse=  1 ParTrn=F ParDer=F DoDerP=T.
 Spin components of T(2) and E(2):
     alpha-alpha T2 =       0.0000000000D+00 E2=      0.0000000000D+00
     alpha-beta  T2 =       0.0000000000D+00 E2=      0.0000000000D+00
     beta-beta   T2 =       0.0000000000D+00 E2=      0.0000000000D+00
 The integrals were generated   1 times.
 (S**2,0)=  0.75000D+00           (S**2,1)=  0.75000D+00
 E(PUHF)=      -0.49823290920D+00        E(PMP2)=      -0.49823290920D+00
 ANorm=    0.1000000000D+01
 E2 =     0.0000000000D+00 EUMP2 =    -0.49823290920158D+00
 Leave Link  906 at Mon Aug 12 23:41:42 2013, MaxMem=  134217728 cpu:       0.1
 (Enter /usr/local/lib/g03/l1002.exe)
 Minotr:  UHF wavefunction.
          Computing MP2 derivatives.
          Using Z-Vector for PSCF gradient.
          Skipping F1 and S1 gradient terms here.
 DoAtom=T
          Direct CPHF calculation.
          Solving linear equations simultaneously.
          Differentiating once with respect to electric field.
                with respect to dipole field.
          Differentiating once with respect to nuclear coordinates.
          Using symmetry in CPHF.
          Requested convergence is 1.0D-10 RMS, and 1.0D-09 maximum.
          Secondary convergence is 1.0D-12 RMS, and 1.0D-12 maximum.
          NewPWx=F KeepS1=T KeepF1=T KeepIn=T MapXYZ=F.
          MDV=     134217719 using IRadAn=       0.
          Store integrals in memory, NReq=      800460.
 Symmetry not used in FoFDir.
 MinBra= 0 MaxBra= 1 Meth= 1.
 IRaf=       0 NMat=   1 IRICut=       1 DoRegI=T DoRafI=F ISym2E= 0 JSym2E=0.
          There are   1 degrees of freedom in the 1st order CPHF.
     0 vectors were produced by pass  0.
 End of Minotr Frequency-dependent properties file   721 does not exist.
 Leave Link 1002 at Mon Aug 12 23:41:52 2013, MaxMem=  134217728 cpu:       0.1
 (Enter /usr/local/lib/g03/l601.exe)
 Copying SCF densities to generalized density rwf, ISCF=1 IROHF=0.

 **********************************************************************

            Population analysis using the MP2 density.

 **********************************************************************

 Orbital symmetries:
 Alpha Orbitals:
       Occupied  (A1G)
       Virtual   (A1G) (T1U) (T1U) (T1U)
 Beta  Orbitals:
       Virtual   (A1G) (A1G) (T1U) (T1U) (T1U)
 The electronic state is 2-A1G.
 Alpha  occ. eigenvalues --   -0.49823
 Alpha virt. eigenvalues --    0.91619   2.23090   2.23090   2.23090
  Beta virt. eigenvalues --    0.09502   1.10807   2.36586   2.36586   2.36586
     Alpha Molecular Orbital Coefficients
                           1         2         3         4         5
                       (A1G)--O  (A1G)--V  (T1U)--V  (T1U)--V  (T1U)--V
     EIGENVALUES --    -0.49823   0.91619   2.23090   2.23090   2.23090
   1 1   H  1S          0.42743   1.25780   0.00000   0.00000   0.00000
   2        2S          0.66545  -1.14975   0.00000   0.00000   0.00000
   3        3PX         0.00000   0.00000   0.00000   0.00000   1.00000
   4        3PY         0.00000   0.00000   0.00000   1.00000   0.00000
   5        3PZ         0.00000   0.00000   1.00000   0.00000   0.00000
     Beta Molecular Orbital Coefficients.
                           1         2         3         4         5
                       (A1G)--V  (A1G)--V  (T1U)--V  (T1U)--V  (T1U)--V
     EIGENVALUES --     0.09502   1.10807   2.36586   2.36586   2.36586
   1 1   H  1S          0.18458   1.31555   0.00000   0.00000   0.00000
   2        2S          0.86880  -1.00496   0.00000   0.00000   0.00000
   3        3PX         0.00000   0.00000   0.00000   0.00000   1.00000
   4        3PY         0.00000   0.00000   0.00000   1.00000   0.00000
   5        3PZ         0.00000   0.00000   1.00000   0.00000   0.00000
     ALPHA DENSITY MATRIX.
                           1         2         3         4         5
   1 1   H  1S          0.18270
   2        2S          0.28443   0.44282
   3        3PX         0.00000   0.00000   0.00000
   4        3PY         0.00000   0.00000   0.00000   0.00000
   5        3PZ         0.00000   0.00000   0.00000   0.00000   0.00000
     BETA DENSITY MATRIX.
                           1         2         3         4         5
   1 1   H  1S          0.00000
   2        2S          0.00000   0.00000
   3        3PX         0.00000   0.00000   0.00000
   4        3PY         0.00000   0.00000   0.00000   0.00000
   5        3PZ         0.00000   0.00000   0.00000   0.00000   0.00000
    Full Mulliken population analysis:
                           1         2         3         4         5
   1 1   H  1S          0.18270
   2        2S          0.18724   0.44282
   3        3PX         0.00000   0.00000   0.00000
   4        3PY         0.00000   0.00000   0.00000   0.00000
   5        3PZ         0.00000   0.00000   0.00000   0.00000   0.00000
     Gross orbital populations:
                         TOTAL     ALPHA     BETA      SPIN
   1 1   H  1S          0.36994   0.36994   0.00000   0.36994
   2        2S          0.63006   0.63006   0.00000   0.63006
   3        3PX         0.00000   0.00000   0.00000   0.00000
   4        3PY         0.00000   0.00000   0.00000   0.00000
   5        3PZ         0.00000   0.00000   0.00000   0.00000
          Condensed to atoms (all electrons):
              1
     1  H    1.000000
 Mulliken atomic charges:
              1
     1  H    0.000000
 Sum of Mulliken charges=   0.00000
 Atomic charges with hydrogens summed into heavy atoms:
              1
     1  H    0.000000
 Sum of Mulliken charges=   0.00000
          Atomic-Atomic Spin Densities.
              1
     1  H    1.000000
 Mulliken atomic spin densities:
              1
     1  H    1.000000
 Sum of Mulliken spin densities=   1.00000
 Electronic spatial extent (au):  <R**2>=     2.8673
 Charge=     0.0000 electrons
 Dipole moment (field-independent basis, Debye):
    X=     0.0000    Y=     0.0000    Z=     0.0000  Tot=     0.0000
 Quadrupole moment (field-independent basis, Debye-Ang):
   XX=    -1.2855   YY=    -1.2855   ZZ=    -1.2855
   XY=     0.0000   XZ=     0.0000   YZ=     0.0000
 Traceless Quadrupole moment (field-independent basis, Debye-Ang):
   XX=     0.0000   YY=     0.0000   ZZ=     0.0000
   XY=     0.0000   XZ=     0.0000   YZ=     0.0000
 Octapole moment (field-independent basis, Debye-Ang**2):
  XXX=     0.0000  YYY=     0.0000  ZZZ=     0.0000  XYY=     0.0000
  XXY=     0.0000  XXZ=     0.0000  XZZ=     0.0000  YZZ=     0.0000
  YYZ=     0.0000  XYZ=     0.0000
 Hexadecapole moment (field-independent basis, Debye-Ang**3):
 XXXX=    -1.3719 YYYY=    -1.3719 ZZZZ=    -1.3719 XXXY=     0.0000
 XXXZ=     0.0000 YYYX=     0.0000 YYYZ=     0.0000 ZZZX=     0.0000
 ZZZY=     0.0000 XXYY=    -0.4573 XXZZ=    -0.4573 YYZZ=    -0.4573
 XXYZ=     0.0000 YYXZ=     0.0000 ZZXY=     0.0000
 N-N= 0.000000000000D+00 E-N=-1.008099576262D+00  KE= 5.098666670602D-01
 Symmetry AG   KE= 5.098666670602D-01
 Symmetry B1G  KE= 0.000000000000D+00
 Symmetry B2G  KE= 0.000000000000D+00
 Symmetry B3G  KE= 0.000000000000D+00
 Symmetry AU   KE= 0.000000000000D+00
 Symmetry B1U  KE= 0.000000000000D+00
 Symmetry B2U  KE= 0.000000000000D+00
 Symmetry B3U  KE= 0.000000000000D+00
 Orbital energies and kinetic energies (alpha):
                           1         2
       1  (A1G)--O     -0.49823   0.50987
       2  (A1G)--V      0.91619   1.77660
       3  (T1U)--V      2.23090   2.75000
       4  (T1U)--V      2.23090   2.75000
       5  (T1U)--V      2.23090   2.75000
 Orbital energies and kinetic energies (beta):
                           1         2
       1  (A1G)--V      0.09502   0.31345
       2  (A1G)--V      1.10807   1.97302
       3  (T1U)--V      2.36586   2.75000
       4  (T1U)--V      2.36586   2.75000
       5  (T1U)--V      2.36586   2.75000
 Total kinetic energy from orbitals= 5.098666670602D-01
                          Isotropic Fermi Contact Couplings
        Atom                 a.u.       MegaHertz       Gauss      10(-4) cm-1
     1  H(1)               0.29790    1331.58601     475.14298     444.16928
 --------------------------------------------------------
       Center         ----  Spin Dipole Couplings  ----
                      3XX-RR        3YY-RR        3ZZ-RR
 --------------------------------------------------------
     1   Atom        0.000000      0.000000      0.000000
 --------------------------------------------------------
                        XY            XZ            YZ
 --------------------------------------------------------
     1   Atom        0.000000      0.000000      0.000000
 --------------------------------------------------------


 ---------------------------------------------------------------------------------
              Anisotropic Spin Dipole Couplings in Principal Axis System
 ---------------------------------------------------------------------------------

       Atom             a.u.   MegaHertz   Gauss  10(-4) cm-1        Axes

              Baa     0.0000     0.000     0.000     0.000  1.0000  0.0000  0.0000
     1 H(1)   Bbb     0.0000     0.000     0.000     0.000  0.0000  1.0000  0.0000
              Bcc     0.0000     0.000     0.000     0.000  0.0000  0.0000  1.0000
 

 ---------------------------------------------------------------------------------

 No NMR shielding tensors so no spin-rotation constants.
 Leave Link  601 at Mon Aug 12 23:42:04 2013, MaxMem=  134217728 cpu:       0.5
 (Enter /usr/local/lib/g03/l701.exe)
 Compute integral first derivatives.
 ... and contract with generalized density number  2.
 Leave Link  701 at Mon Aug 12 23:42:14 2013, MaxMem=  134217728 cpu:       0.2
 (Enter /usr/local/lib/g03/l702.exe)
 L702 exits ... SP integral derivatives will be done elsewhere.
 Leave Link  702 at Mon Aug 12 23:42:26 2013, MaxMem=  134217728 cpu:       0.0
 (Enter /usr/local/lib/g03/l703.exe)
 Compute integral first derivatives, UseDBF=F.
 Integral derivatives from FoFDir, PRISM(SPDF).
 Use density number 2.
 Petite list used in FoFDir.
 MinBra= 0 MaxBra= 1 Meth= 1.
 IRaf=       0 NMat=   1 IRICut=       1 DoRegI=T DoRafI=F ISym2E= 1 JSym2E=1.
 Leave Link  703 at Mon Aug 12 23:42:36 2013, MaxMem=  134217728 cpu:       0.1
 (Enter /usr/local/lib/g03/l716.exe)
 Use density number 2.
 Dipole        = 0.00000000D+00 0.00000000D+00 0.00000000D+00
 ***** Axes restored to original set *****
 -------------------------------------------------------------------
 Center     Atomic                   Forces (Hartrees/Bohr)
 Number     Number              X              Y              Z
 -------------------------------------------------------------------
    1          1           0.000000000    0.000000000    0.000000000
 -------------------------------------------------------------------
 Cartesian Forces:  Max     0.000000000 RMS     0.000000000
 Leave Link  716 at Mon Aug 12 23:42:47 2013, MaxMem=  134217728 cpu:       0.0
 (Enter /usr/local/lib/g03/l106.exe)
 NDeriv=   3 NFrqRd=  0 LFDDif=       0
 NDeriv=   3 NFrqRd=  0 LFDDif=       0
 D2Numr ... symmetry will be used.
 Leave Link  106 at Mon Aug 12 23:42:58 2013, MaxMem=  134217728 cpu:       0.1
 (Enter /usr/local/lib/g03/l301.exe)
 Standard basis: 6-31G(d,p) (6D, 7F)
 Integral buffers will be    262144 words long.
 Raffenetti 2 integral format.
 Two-electron integral symmetry is turned off.
     5 basis functions,     7 primitive gaussians,     5 cartesian basis functions
     1 alpha electrons        0 beta electrons
       nuclear repulsion energy         0.0000000000 Hartrees.
 IExCor=   0 DFT=F Ex=HF Corr=None ExCW=0 ScaHFX=  1.000000
 ScaDFX=  1.000000  1.000000  1.000000  1.000000
 IRadAn=      0 IRanWt=     -1 IRanGd=            0 ICorTp=0
 NAtoms=    1 NActive=    1 NUniq=    1 SFac= 7.50D-01 NAtFMM=   80 NAOKFM=F Big=F
 Leave Link  301 at Mon Aug 12 23:43:11 2013, MaxMem=  134217728 cpu:       0.1
 (Enter /usr/local/lib/g03/l302.exe)
 NPDir=0 NMtPBC=     1 NCelOv=     1 NCel=       1 NClECP=     1 NCelD=      1
         NCelK=      1 NCelE2=     1 NClLst=     1 CellRange=     0.0.
 One-electron integrals computed using PRISM.
 NBasis=     5 RedAO= T  NBF=     5
 NBsUse=     5 1.00D-06 NBFU=     5
 Leave Link  302 at Mon Aug 12 23:43:23 2013, MaxMem=  134217728 cpu:       0.1
 (Enter /usr/local/lib/g03/l303.exe)
 DipDrv:  MaxL=1.
 Leave Link  303 at Mon Aug 12 23:43:33 2013, MaxMem=  134217728 cpu:       0.0
 (Enter /usr/local/lib/g03/l401.exe)
 Initial guess read from the read-write file:
 Guess basis will be translated and rotated to current coordinates.
 <S**2> of initial guess= 0.7500
 Leave Link  401 at Mon Aug 12 23:43:45 2013, MaxMem=  134217728 cpu:       0.0
 (Enter /usr/local/lib/g03/l502.exe)
 UHF open shell SCF:
 Requested convergence on RMS density matrix=1.00D-08 within 128 cycles.
 Requested convergence on MAX density matrix=1.00D-06.
 Requested convergence on             energy=1.00D-06.
 No special actions if energy rises.
 Using DIIS extrapolation, IDIIS=  1040.
 Two-electron integral symmetry not used.
 Keep R1 and R2 integrals in memory in canonical form, NReq=      819092.
 IEnd=     18747 IEndB=     18747 NGot= 134217728 MDV= 134215830
 LenX= 134215830
 Symmetry not used in FoFDir.
 MinBra= 0 MaxBra= 1 Meth= 1.
 IRaf=       0 NMat=   1 IRICut=       1 DoRegI=T DoRafI=F ISym2E= 0 JSym2E=0.

 Cycle   1  Pass 1  IDiag  1:
 E=-0.498232909201578    
 DIIS: error= 3.69D-17 at cycle   1 NSaved=   1.
 NSaved= 1 IEnMin= 1 EnMin=-0.498232909201578     IErMin= 1 ErrMin= 3.69D-17
 ErrMax= 3.69D-17 EMaxC= 1.00D-01 BMatC= 1.09D-32 BMatP= 1.09D-32
 IDIUse=1 WtCom= 1.00D+00 WtEn= 0.00D+00
 Coeff-Com:  0.100D+01
 Coeff:      0.100D+01
 Gap=     1.414 Goal=   None    Shift=    0.000
 RMSDP=4.15D-17 MaxDP=1.67D-16              OVMax= 1.64D-16

 SCF Done:  E(UHF) = -0.498232909202     A.U. after    1 cycles
             Convg  =    0.4153D-16             -V/T =  1.9772
             S**2   =   0.7500
 KE= 5.098666670602D-01 PE=-1.008099576262D+00 EE= 0.000000000000D+00
 Annihilation of the first spin contaminant:
 S**2 before annihilation     0.7500,   after     0.7500
 Leave Link  502 at Mon Aug 12 23:43:57 2013, MaxMem=  134217728 cpu:       0.1
 (Enter /usr/local/lib/g03/l801.exe)
 Range of M.O.s used for correlation:     1     5
 NBasis=     5 NAE=     1 NBE=     0 NFC=     0 NFV=     0
 NROrb=      5 NOA=     1 NOB=     0 NVA=     4 NVB=     5
 *** There is no correlation energy for this system ***
 Leave Link  801 at Mon Aug 12 23:44:09 2013, MaxMem=  134217728 cpu:       0.0
 (Enter /usr/local/lib/g03/l906.exe)
 FulOut=F Deriv=T AODrv=T NAtomX=     1
   MMem=      253240  MDisk=           1 MDiskD=           1
  W3Min=          50 MinDsk=       50245 NBas6D=           5
 NBas2D=          18    NTT=          15    LW2=     2000000
    MDV=   134217440 MDiskM=      275453 NBas2p=          18
 Fully direct method using O(ONN) memory.
 IMap=   1
 JobTyp=2 Pass  1:  I=   1 to   1 NPSUse=  1 ParTrn=F ParDer=F DoDerP=T.
 Spin components of T(2) and E(2):
     alpha-alpha T2 =       0.0000000000D+00 E2=      0.0000000000D+00
     alpha-beta  T2 =       0.0000000000D+00 E2=      0.0000000000D+00
     beta-beta   T2 =       0.0000000000D+00 E2=      0.0000000000D+00
 The integrals were generated   1 times.
 (S**2,0)=  0.75000D+00           (S**2,1)=  0.75000D+00
 E(PUHF)=      -0.49823290920D+00        E(PMP2)=      -0.49823290920D+00
 ANorm=    0.1000000000D+01
 E2 =     0.0000000000D+00 EUMP2 =    -0.49823290920158D+00
 Leave Link  906 at Mon Aug 12 23:44:19 2013, MaxMem=  134217728 cpu:       0.1
 (Enter /usr/local/lib/g03/l1002.exe)
 Minotr:  UHF wavefunction.
          Computing MP2 derivatives.
          Using Z-Vector for PSCF gradient.
          Skipping F1 and S1 gradient terms here.
 DoAtom=T
          Direct CPHF calculation.
          Solving linear equations simultaneously.
          Differentiating once with respect to electric field.
                with respect to dipole field.
          Differentiating once with respect to nuclear coordinates.
          Requested convergence is 1.0D-10 RMS, and 1.0D-09 maximum.
          Secondary convergence is 1.0D-12 RMS, and 1.0D-12 maximum.
          NewPWx=F KeepS1=T KeepF1=T KeepIn=T MapXYZ=F.
          MDV=     134217719 using IRadAn=       0.
          Store integrals in memory, NReq=      800420.
 Symmetry not used in FoFDir.
 MinBra= 0 MaxBra= 1 Meth= 1.
 IRaf=       0 NMat=   1 IRICut=       1 DoRegI=T DoRafI=F ISym2E= 0 JSym2E=0.
          There are   1 degrees of freedom in the 1st order CPHF.
     0 vectors were produced by pass  0.
 End of Minotr Frequency-dependent properties file   721 does not exist.
 Leave Link 1002 at Mon Aug 12 23:44:32 2013, MaxMem=  134217728 cpu:       0.1
 (Enter /usr/local/lib/g03/l601.exe)
 Copying SCF densities to generalized density rwf, ISCF=1 IROHF=0.

 **********************************************************************

            Population analysis using the MP2 density.

 **********************************************************************

 Alpha  occ. eigenvalues --   -0.49823
 Alpha virt. eigenvalues --    0.91619   2.23090   2.23090   2.23090
  Beta virt. eigenvalues --    0.09502   1.10807   2.36586   2.36586   2.36586
     Alpha Molecular Orbital Coefficients
                           1         2         3         4         5
                           O         V         V         V         V
     EIGENVALUES --    -0.49823   0.91619   2.23090   2.23090   2.23090
   1 1   H  1S          0.42743   1.25780   0.00000   0.00000   0.00000
   2        2S          0.66545  -1.14975   0.00000   0.00000   0.00000
   3        3PX         0.00000   0.00000   0.00000   1.00000   0.00000
   4        3PY         0.00000   0.00000   0.00000   0.00000   1.00000
   5        3PZ         0.00000   0.00000   1.00000   0.00000   0.00000
     Beta Molecular Orbital Coefficients.
                           1         2         3         4         5
                           V         V         V         V         V
     EIGENVALUES --     0.09502   1.10807   2.36586   2.36586   2.36586
   1 1   H  1S          0.18458   1.31555   0.00000   0.00000   0.00000
   2        2S          0.86880  -1.00496   0.00000   0.00000   0.00000
   3        3PX         0.00000   0.00000   0.00000   0.00000   1.00000
   4        3PY         0.00000   0.00000   0.99256   0.12179   0.00000
   5        3PZ         0.00000   0.00000  -0.12179   0.99256   0.00000
     ALPHA DENSITY MATRIX.
                           1         2         3         4         5
   1 1   H  1S          0.18270
   2        2S          0.28443   0.44282
   3        3PX         0.00000   0.00000   0.00000
   4        3PY         0.00000   0.00000   0.00000   0.00000
   5        3PZ         0.00000   0.00000   0.00000   0.00000   0.00000
     BETA DENSITY MATRIX.
                           1         2         3         4         5
   1 1   H  1S          0.00000
   2        2S          0.00000   0.00000
   3        3PX         0.00000   0.00000   0.00000
   4        3PY         0.00000   0.00000   0.00000   0.00000
   5        3PZ         0.00000   0.00000   0.00000   0.00000   0.00000
    Full Mulliken population analysis:
                           1         2         3         4         5
   1 1   H  1S          0.18270
   2        2S          0.18724   0.44282
   3        3PX         0.00000   0.00000   0.00000
   4        3PY         0.00000   0.00000   0.00000   0.00000
   5        3PZ         0.00000   0.00000   0.00000   0.00000   0.00000
     Gross orbital populations:
                         TOTAL     ALPHA     BETA      SPIN
   1 1   H  1S          0.36994   0.36994   0.00000   0.36994
   2        2S          0.63006   0.63006   0.00000   0.63006
   3        3PX         0.00000   0.00000   0.00000   0.00000
   4        3PY         0.00000   0.00000   0.00000   0.00000
   5        3PZ         0.00000   0.00000   0.00000   0.00000
          Condensed to atoms (all electrons):
              1
     1  H    1.000000
 Mulliken atomic charges:
              1
     1  H    0.000000
 Sum of Mulliken charges=   0.00000
 Atomic charges with hydrogens summed into heavy atoms:
              1
     1  H    0.000000
 Sum of Mulliken charges=   0.00000
          Atomic-Atomic Spin Densities.
              1
     1  H    1.000000
 Mulliken atomic spin densities:
              1
     1  H    1.000000
 Sum of Mulliken spin densities=   1.00000
 Electronic spatial extent (au):  <R**2>=     2.8673
 Charge=     0.0000 electrons
 Dipole moment (field-independent basis, Debye):
    X=     0.0000    Y=     0.0000    Z=     0.0000  Tot=     0.0000
 Quadrupole moment (field-independent basis, Debye-Ang):
   XX=    -1.2855   YY=    -1.2855   ZZ=    -1.2855
   XY=     0.0000   XZ=     0.0000   YZ=     0.0000
 Traceless Quadrupole moment (field-independent basis, Debye-Ang):
   XX=     0.0000   YY=     0.0000   ZZ=     0.0000
   XY=     0.0000   XZ=     0.0000   YZ=     0.0000
 Octapole moment (field-independent basis, Debye-Ang**2):
  XXX=    -0.0039  YYY=     0.0000  ZZZ=     0.0000  XYY=    -0.0013
  XXY=     0.0000  XXZ=     0.0000  XZZ=    -0.0013  YZZ=     0.0000
  YYZ=     0.0000  XYZ=     0.0000
 Hexadecapole moment (field-independent basis, Debye-Ang**3):
 XXXX=    -1.3719 YYYY=    -1.3719 ZZZZ=    -1.3719 XXXY=     0.0000
 XXXZ=     0.0000 YYYX=     0.0000 YYYZ=     0.0000 ZZZX=     0.0000
 ZZZY=     0.0000 XXYY=    -0.4573 XXZZ=    -0.4573 YYZZ=    -0.4573
 XXYZ=     0.0000 YYXZ=     0.0000 ZZXY=     0.0000
 N-N= 0.000000000000D+00 E-N=-1.008099576262D+00  KE= 5.098666670602D-01
 Orbital energies and kinetic energies (alpha):
                           1         2
       1  O            -0.49823   0.50987
       2  V             0.91619   1.77660
       3  V             2.23090   2.75000
       4  V             2.23090   2.75000
       5  V             2.23090   2.75000
 Orbital energies and kinetic energies (beta):
                           1         2
       1  V             0.09502   0.31345
       2  V             1.10807   1.97302
       3  V             2.36586   2.75000
       4  V             2.36586   2.75000
       5  V             2.36586   2.75000
 Total kinetic energy from orbitals= 5.098666670602D-01
                          Isotropic Fermi Contact Couplings
        Atom                 a.u.       MegaHertz       Gauss      10(-4) cm-1
     1  H(1)               0.29790    1331.58601     475.14298     444.16928
 --------------------------------------------------------
       Center         ----  Spin Dipole Couplings  ----
                      3XX-RR        3YY-RR        3ZZ-RR
 --------------------------------------------------------
     1   Atom        0.000000      0.000000      0.000000
 --------------------------------------------------------
                        XY            XZ            YZ
 --------------------------------------------------------
     1   Atom        0.000000      0.000000      0.000000
 --------------------------------------------------------


 ---------------------------------------------------------------------------------
              Anisotropic Spin Dipole Couplings in Principal Axis System
 ---------------------------------------------------------------------------------

       Atom             a.u.   MegaHertz   Gauss  10(-4) cm-1        Axes

              Baa     0.0000     0.000     0.000     0.000  1.0000  0.0000  0.0000
     1 H(1)   Bbb     0.0000     0.000     0.000     0.000  0.0000  1.0000  0.0000
              Bcc     0.0000     0.000     0.000     0.000  0.0000  0.0000  1.0000
 

 ---------------------------------------------------------------------------------

 No NMR shielding tensors so no spin-rotation constants.
 Leave Link  601 at Mon Aug 12 23:44:43 2013, MaxMem=  134217728 cpu:       0.4
 (Enter /usr/local/lib/g03/l701.exe)
 Compute integral first derivatives.
 ... and contract with generalized density number  2.
 Leave Link  701 at Mon Aug 12 23:44:57 2013, MaxMem=  134217728 cpu:       0.2
 (Enter /usr/local/lib/g03/l702.exe)
 L702 exits ... SP integral derivatives will be done elsewhere.
 Leave Link  702 at Mon Aug 12 23:45:08 2013, MaxMem=  134217728 cpu:       0.0
 (Enter /usr/local/lib/g03/l703.exe)
 Compute integral first derivatives, UseDBF=F.
 Integral derivatives from FoFDir, PRISM(SPDF).
 Use density number 2.
 Symmetry not used in FoFDir.
 MinBra= 0 MaxBra= 1 Meth= 1.
 IRaf=       0 NMat=   1 IRICut=       1 DoRegI=T DoRafI=F ISym2E= 0 JSym2E=0.
 Leave Link  703 at Mon Aug 12 23:45:19 2013, MaxMem=  134217728 cpu:       0.1
 (Enter /usr/local/lib/g03/l716.exe)
 Use density number 2.
 Dipole        = 6.50521303D-19-1.91187634D-17-1.69186897D-16
 -------------------------------------------------------------------
 Center     Atomic                   Forces (Hartrees/Bohr)
 Number     Number              X              Y              Z
 -------------------------------------------------------------------
    1          1           0.000000000    0.000000000    0.000000000
 -------------------------------------------------------------------
 Cartesian Forces:  Max     0.000000000 RMS     0.000000000
 Leave Link  716 at Mon Aug 12 23:45:31 2013, MaxMem=  134217728 cpu:       0.0
 (Enter /usr/local/lib/g03/l106.exe)
 NDeriv=   3 NFrqRd=  0 LFDDif=       0
 NDeriv=   3 NFrqRd=  0 LFDDif=       0
 Re-enter D2Numr: IAtom=  1 IXYZ=1 IStep= 1.
 Skip step-back as it is equivalent to step-up.
 Leave Link  106 at Mon Aug 12 23:45:44 2013, MaxMem=  134217728 cpu:       0.1
 (Enter /usr/local/lib/g03/l301.exe)
 Standard basis: 6-31G(d,p) (6D, 7F)
 Integral buffers will be    262144 words long.
 Raffenetti 2 integral format.
 Two-electron integral symmetry is turned off.
     5 basis functions,     7 primitive gaussians,     5 cartesian basis functions
     1 alpha electrons        0 beta electrons
       nuclear repulsion energy         0.0000000000 Hartrees.
 IExCor=   0 DFT=F Ex=HF Corr=None ExCW=0 ScaHFX=  1.000000
 ScaDFX=  1.000000  1.000000  1.000000  1.000000
 IRadAn=      0 IRanWt=     -1 IRanGd=            0 ICorTp=0
 NAtoms=    1 NActive=    1 NUniq=    1 SFac= 7.50D-01 NAtFMM=   80 NAOKFM=F Big=F
 Leave Link  301 at Mon Aug 12 23:45:57 2013, MaxMem=  134217728 cpu:       0.0
 (Enter /usr/local/lib/g03/l302.exe)
 NPDir=0 NMtPBC=     1 NCelOv=     1 NCel=       1 NClECP=     1 NCelD=      1
         NCelK=      1 NCelE2=     1 NClLst=     1 CellRange=     0.0.
 One-electron integrals computed using PRISM.
 NBasis=     5 RedAO= T  NBF=     5
 NBsUse=     5 1.00D-06 NBFU=     5
 Leave Link  302 at Mon Aug 12 23:46:09 2013, MaxMem=  134217728 cpu:       0.2
 (Enter /usr/local/lib/g03/l303.exe)
 DipDrv:  MaxL=1.
 Leave Link  303 at Mon Aug 12 23:46:20 2013, MaxMem=  134217728 cpu:       0.0
 (Enter /usr/local/lib/g03/l401.exe)
 Initial guess read from the read-write file:
 Guess basis will be translated and rotated to current coordinates.
 <S**2> of initial guess= 0.7500
 Leave Link  401 at Mon Aug 12 23:46:32 2013, MaxMem=  134217728 cpu:       0.1
 (Enter /usr/local/lib/g03/l502.exe)
 UHF open shell SCF:
 Requested convergence on RMS density matrix=1.00D-08 within 128 cycles.
 Requested convergence on MAX density matrix=1.00D-06.
 Requested convergence on             energy=1.00D-06.
 No special actions if energy rises.
 Using DIIS extrapolation, IDIIS=  1040.
 Two-electron integral symmetry not used.
 Keep R1 and R2 integrals in memory in canonical form, NReq=      819092.
 IEnd=     18747 IEndB=     18747 NGot= 134217728 MDV= 134215830
 LenX= 134215830
 Symmetry not used in FoFDir.
 MinBra= 0 MaxBra= 1 Meth= 1.
 IRaf=       0 NMat=   1 IRICut=       1 DoRegI=T DoRafI=F ISym2E= 0 JSym2E=0.

 Cycle   1  Pass 1  IDiag  1:
 E=-0.498232909201578    
 DIIS: error= 3.69D-17 at cycle   1 NSaved=   1.
 NSaved= 1 IEnMin= 1 EnMin=-0.498232909201578     IErMin= 1 ErrMin= 3.69D-17
 ErrMax= 3.69D-17 EMaxC= 1.00D-01 BMatC= 1.09D-32 BMatP= 1.09D-32
 IDIUse=1 WtCom= 1.00D+00 WtEn= 0.00D+00
 Coeff-Com:  0.100D+01
 Coeff:      0.100D+01
 Gap=     1.414 Goal=   None    Shift=    0.000
 RMSDP=3.32D-17 MaxDP=1.67D-16              OVMax= 4.38D-17

 SCF Done:  E(UHF) = -0.498232909202     A.U. after    1 cycles
             Convg  =    0.3321D-16             -V/T =  1.9772
             S**2   =   0.7500
 KE= 5.098666670602D-01 PE=-1.008099576262D+00 EE= 0.000000000000D+00
 Annihilation of the first spin contaminant:
 S**2 before annihilation     0.7500,   after     0.7500
 Leave Link  502 at Mon Aug 12 23:46:44 2013, MaxMem=  134217728 cpu:       0.1
 (Enter /usr/local/lib/g03/l801.exe)
 Range of M.O.s used for correlation:     1     5
 NBasis=     5 NAE=     1 NBE=     0 NFC=     0 NFV=     0
 NROrb=      5 NOA=     1 NOB=     0 NVA=     4 NVB=     5
 *** There is no correlation energy for this system ***
 Leave Link  801 at Mon Aug 12 23:46:56 2013, MaxMem=  134217728 cpu:       0.0
 (Enter /usr/local/lib/g03/l906.exe)
 FulOut=F Deriv=T AODrv=T NAtomX=     1
   MMem=      253240  MDisk=           1 MDiskD=           1
  W3Min=          50 MinDsk=       50245 NBas6D=           5
 NBas2D=          18    NTT=          15    LW2=     2000000
    MDV=   134217440 MDiskM=      275453 NBas2p=          18
 Fully direct method using O(ONN) memory.
 IMap=   1
 JobTyp=2 Pass  1:  I=   1 to   1 NPSUse=  1 ParTrn=F ParDer=F DoDerP=T.
 Spin components of T(2) and E(2):
     alpha-alpha T2 =       0.0000000000D+00 E2=      0.0000000000D+00
     alpha-beta  T2 =       0.0000000000D+00 E2=      0.0000000000D+00
     beta-beta   T2 =       0.0000000000D+00 E2=      0.0000000000D+00
 The integrals were generated   1 times.
 (S**2,0)=  0.75000D+00           (S**2,1)=  0.75000D+00
 E(PUHF)=      -0.49823290920D+00        E(PMP2)=      -0.49823290920D+00
 ANorm=    0.1000000000D+01
 E2 =     0.0000000000D+00 EUMP2 =    -0.49823290920158D+00
 Leave Link  906 at Mon Aug 12 23:47:09 2013, MaxMem=  134217728 cpu:       0.1
 (Enter /usr/local/lib/g03/l1002.exe)
 Minotr:  UHF wavefunction.
          Computing MP2 derivatives.
          Using Z-Vector for PSCF gradient.
          Skipping F1 and S1 gradient terms here.
 DoAtom=T
          Direct CPHF calculation.
          Solving linear equations simultaneously.
          Differentiating once with respect to electric field.
                with respect to dipole field.
          Differentiating once with respect to nuclear coordinates.
          Requested convergence is 1.0D-10 RMS, and 1.0D-09 maximum.
          Secondary convergence is 1.0D-12 RMS, and 1.0D-12 maximum.
          NewPWx=F KeepS1=T KeepF1=T KeepIn=T MapXYZ=F.
          MDV=     134217719 using IRadAn=       0.
          Store integrals in memory, NReq=      800420.
 Symmetry not used in FoFDir.
 MinBra= 0 MaxBra= 1 Meth= 1.
 IRaf=       0 NMat=   1 IRICut=       1 DoRegI=T DoRafI=F ISym2E= 0 JSym2E=0.
          There are   1 degrees of freedom in the 1st order CPHF.
     0 vectors were produced by pass  0.
 End of Minotr Frequency-dependent properties file   721 does not exist.
 Leave Link 1002 at Mon Aug 12 23:47:20 2013, MaxMem=  134217728 cpu:       0.1
 (Enter /usr/local/lib/g03/l601.exe)
 Copying SCF densities to generalized density rwf, ISCF=1 IROHF=0.

 **********************************************************************

            Population analysis using the MP2 density.

 **********************************************************************

 Alpha  occ. eigenvalues --   -0.49823
 Alpha virt. eigenvalues --    0.91619   2.23090   2.23090   2.23090
  Beta virt. eigenvalues --    0.09502   1.10807   2.36586   2.36586   2.36586
     Alpha Molecular Orbital Coefficients
                           1         2         3         4         5
                           O         V         V         V         V
     EIGENVALUES --    -0.49823   0.91619   2.23090   2.23090   2.23090
   1 1   H  1S          0.42743   1.25780   0.00000   0.00000   0.00000
   2        2S          0.66545  -1.14975   0.00000   0.00000   0.00000
   3        3PX         0.00000   0.00000   0.00000   1.00000   0.00000
   4        3PY         0.00000   0.00000   1.00000   0.00000   0.00000
   5        3PZ         0.00000   0.00000   0.00000   0.00000   1.00000
     Beta Molecular Orbital Coefficients.
                           1         2         3         4         5
                           V         V         V         V         V
     EIGENVALUES --     0.09502   1.10807   2.36586   2.36586   2.36586
   1 1   H  1S          0.18458   1.31555   0.00000   0.00000   0.00000
   2        2S          0.86880  -1.00496   0.00000   0.00000   0.00000
   3        3PX         0.00000   0.00000   0.00000   0.00000   1.00000
   4        3PY         0.00000   0.00000   0.00000   1.00000   0.00000
   5        3PZ         0.00000   0.00000   1.00000   0.00000   0.00000
     ALPHA DENSITY MATRIX.
                           1         2         3         4         5
   1 1   H  1S          0.18270
   2        2S          0.28443   0.44282
   3        3PX         0.00000   0.00000   0.00000
   4        3PY         0.00000   0.00000   0.00000   0.00000
   5        3PZ         0.00000   0.00000   0.00000   0.00000   0.00000
     BETA DENSITY MATRIX.
                           1         2         3         4         5
   1 1   H  1S          0.00000
   2        2S          0.00000   0.00000
   3        3PX         0.00000   0.00000   0.00000
   4        3PY         0.00000   0.00000   0.00000   0.00000
   5        3PZ         0.00000   0.00000   0.00000   0.00000   0.00000
    Full Mulliken population analysis:
                           1         2         3         4         5
   1 1   H  1S          0.18270
   2        2S          0.18724   0.44282
   3        3PX         0.00000   0.00000   0.00000
   4        3PY         0.00000   0.00000   0.00000   0.00000
   5        3PZ         0.00000   0.00000   0.00000   0.00000   0.00000
     Gross orbital populations:
                         TOTAL     ALPHA     BETA      SPIN
   1 1   H  1S          0.36994   0.36994   0.00000   0.36994
   2        2S          0.63006   0.63006   0.00000   0.63006
   3        3PX         0.00000   0.00000   0.00000   0.00000
   4        3PY         0.00000   0.00000   0.00000   0.00000
   5        3PZ         0.00000   0.00000   0.00000   0.00000
          Condensed to atoms (all electrons):
              1
     1  H    1.000000
 Mulliken atomic charges:
              1
     1  H    0.000000
 Sum of Mulliken charges=   0.00000
 Atomic charges with hydrogens summed into heavy atoms:
              1
     1  H    0.000000
 Sum of Mulliken charges=   0.00000
          Atomic-Atomic Spin Densities.
              1
     1  H    1.000000
 Mulliken atomic spin densities:
              1
     1  H    1.000000
 Sum of Mulliken spin densities=   1.00000
 Electronic spatial extent (au):  <R**2>=     2.8673
 Charge=     0.0000 electrons
 Dipole moment (field-independent basis, Debye):
    X=     0.0000    Y=     0.0000    Z=     0.0000  Tot=     0.0000
 Quadrupole moment (field-independent basis, Debye-Ang):
   XX=    -1.2855   YY=    -1.2855   ZZ=    -1.2855
   XY=     0.0000   XZ=     0.0000   YZ=     0.0000
 Traceless Quadrupole moment (field-independent basis, Debye-Ang):
   XX=     0.0000   YY=     0.0000   ZZ=     0.0000
   XY=     0.0000   XZ=     0.0000   YZ=     0.0000
 Octapole moment (field-independent basis, Debye-Ang**2):
  XXX=     0.0000  YYY=    -0.0039  ZZZ=     0.0000  XYY=     0.0000
  XXY=    -0.0013  XXZ=     0.0000  XZZ=     0.0000  YZZ=    -0.0013
  YYZ=     0.0000  XYZ=     0.0000
 Hexadecapole moment (field-independent basis, Debye-Ang**3):
 XXXX=    -1.3719 YYYY=    -1.3719 ZZZZ=    -1.3719 XXXY=     0.0000
 XXXZ=     0.0000 YYYX=     0.0000 YYYZ=     0.0000 ZZZX=     0.0000
 ZZZY=     0.0000 XXYY=    -0.4573 XXZZ=    -0.4573 YYZZ=    -0.4573
 XXYZ=     0.0000 YYXZ=     0.0000 ZZXY=     0.0000
 N-N= 0.000000000000D+00 E-N=-1.008099576262D+00  KE= 5.098666670602D-01
 Orbital energies and kinetic energies (alpha):
                           1         2
       1  O            -0.49823   0.50987
       2  V             0.91619   1.77660
       3  V             2.23090   2.75000
       4  V             2.23090   2.75000
       5  V             2.23090   2.75000
 Orbital energies and kinetic energies (beta):
                           1         2
       1  V             0.09502   0.31345
       2  V             1.10807   1.97302
       3  V             2.36586   2.75000
       4  V             2.36586   2.75000
       5  V             2.36586   2.75000
 Total kinetic energy from orbitals= 5.098666670602D-01
                          Isotropic Fermi Contact Couplings
        Atom                 a.u.       MegaHertz       Gauss      10(-4) cm-1
     1  H(1)               0.29790    1331.58601     475.14298     444.16928
 --------------------------------------------------------
       Center         ----  Spin Dipole Couplings  ----
                      3XX-RR        3YY-RR        3ZZ-RR
 --------------------------------------------------------
     1   Atom        0.000000      0.000000      0.000000
 --------------------------------------------------------
                        XY            XZ            YZ
 --------------------------------------------------------
     1   Atom        0.000000      0.000000      0.000000
 --------------------------------------------------------


 ---------------------------------------------------------------------------------
              Anisotropic Spin Dipole Couplings in Principal Axis System
 ---------------------------------------------------------------------------------

       Atom             a.u.   MegaHertz   Gauss  10(-4) cm-1        Axes

              Baa     0.0000     0.000     0.000     0.000  1.0000  0.0000  0.0000
     1 H(1)   Bbb     0.0000     0.000     0.000     0.000  0.0000  1.0000  0.0000
              Bcc     0.0000     0.000     0.000     0.000  0.0000  0.0000  1.0000
 

 ---------------------------------------------------------------------------------

 No NMR shielding tensors so no spin-rotation constants.
 Leave Link  601 at Mon Aug 12 23:47:31 2013, MaxMem=  134217728 cpu:       0.5
 (Enter /usr/local/lib/g03/l701.exe)
 Compute integral first derivatives.
 ... and contract with generalized density number  2.
 Leave Link  701 at Mon Aug 12 23:47:43 2013, MaxMem=  134217728 cpu:       0.2
 (Enter /usr/local/lib/g03/l702.exe)
 L702 exits ... SP integral derivatives will be done elsewhere.
 Leave Link  702 at Mon Aug 12 23:47:54 2013, MaxMem=  134217728 cpu:       0.0
 (Enter /usr/local/lib/g03/l703.exe)
 Compute integral first derivatives, UseDBF=F.
 Integral derivatives from FoFDir, PRISM(SPDF).
 Use density number 2.
 Symmetry not used in FoFDir.
 MinBra= 0 MaxBra= 1 Meth= 1.
 IRaf=       0 NMat=   1 IRICut=       1 DoRegI=T DoRafI=F ISym2E= 0 JSym2E=0.
 Leave Link  703 at Mon Aug 12 23:48:06 2013, MaxMem=  134217728 cpu:       0.1
 (Enter /usr/local/lib/g03/l716.exe)
 Use density number 2.
 Dipole        = 0.00000000D+00 6.50521303D-19 4.16863262D-17
 -------------------------------------------------------------------
 Center     Atomic                   Forces (Hartrees/Bohr)
 Number     Number              X              Y              Z
 -------------------------------------------------------------------
    1          1           0.000000000    0.000000000    0.000000000
 -------------------------------------------------------------------
 Cartesian Forces:  Max     0.000000000 RMS     0.000000000
 Leave Link  716 at Mon Aug 12 23:48:18 2013, MaxMem=  134217728 cpu:       0.0
 (Enter /usr/local/lib/g03/l106.exe)
 NDeriv=   3 NFrqRd=  0 LFDDif=       0
 NDeriv=   3 NFrqRd=  0 LFDDif=       0
 Re-enter D2Numr: IAtom=  1 IXYZ=2 IStep= 1.
 Skip step-back as it is equivalent to step-up.
 Leave Link  106 at Mon Aug 12 23:48:30 2013, MaxMem=  134217728 cpu:       0.0
 (Enter /usr/local/lib/g03/l301.exe)
 Standard basis: 6-31G(d,p) (6D, 7F)
 Integral buffers will be    262144 words long.
 Raffenetti 2 integral format.
 Two-electron integral symmetry is turned off.
     5 basis functions,     7 primitive gaussians,     5 cartesian basis functions
     1 alpha electrons        0 beta electrons
       nuclear repulsion energy         0.0000000000 Hartrees.
 IExCor=   0 DFT=F Ex=HF Corr=None ExCW=0 ScaHFX=  1.000000
 ScaDFX=  1.000000  1.000000  1.000000  1.000000
 IRadAn=      0 IRanWt=     -1 IRanGd=            0 ICorTp=0
 NAtoms=    1 NActive=    1 NUniq=    1 SFac= 7.50D-01 NAtFMM=   80 NAOKFM=F Big=F
 Leave Link  301 at Mon Aug 12 23:48:41 2013, MaxMem=  134217728 cpu:       0.0
 (Enter /usr/local/lib/g03/l302.exe)
 NPDir=0 NMtPBC=     1 NCelOv=     1 NCel=       1 NClECP=     1 NCelD=      1
         NCelK=      1 NCelE2=     1 NClLst=     1 CellRange=     0.0.
 One-electron integrals computed using PRISM.
 NBasis=     5 RedAO= T  NBF=     5
 NBsUse=     5 1.00D-06 NBFU=     5
 Leave Link  302 at Mon Aug 12 23:48:54 2013, MaxMem=  134217728 cpu:       0.1
 (Enter /usr/local/lib/g03/l303.exe)
 DipDrv:  MaxL=1.
 Leave Link  303 at Mon Aug 12 23:49:06 2013, MaxMem=  134217728 cpu:       0.0
 (Enter /usr/local/lib/g03/l401.exe)
 Initial guess read from the read-write file:
 Guess basis will be translated and rotated to current coordinates.
 <S**2> of initial guess= 0.7500
 Leave Link  401 at Mon Aug 12 23:49:19 2013, MaxMem=  134217728 cpu:       0.0
 (Enter /usr/local/lib/g03/l502.exe)
 UHF open shell SCF:
 Requested convergence on RMS density matrix=1.00D-08 within 128 cycles.
 Requested convergence on MAX density matrix=1.00D-06.
 Requested convergence on             energy=1.00D-06.
 No special actions if energy rises.
 Using DIIS extrapolation, IDIIS=  1040.
 Two-electron integral symmetry not used.
 Keep R1 and R2 integrals in memory in canonical form, NReq=      819092.
 IEnd=     18747 IEndB=     18747 NGot= 134217728 MDV= 134215830
 LenX= 134215830
 Symmetry not used in FoFDir.
 MinBra= 0 MaxBra= 1 Meth= 1.
 IRaf=       0 NMat=   1 IRICut=       1 DoRegI=T DoRafI=F ISym2E= 0 JSym2E=0.

 Cycle   1  Pass 1  IDiag  1:
 E=-0.498232909201578    
 DIIS: error= 3.69D-17 at cycle   1 NSaved=   1.
 NSaved= 1 IEnMin= 1 EnMin=-0.498232909201578     IErMin= 1 ErrMin= 3.69D-17
 ErrMax= 3.69D-17 EMaxC= 1.00D-01 BMatC= 1.09D-32 BMatP= 1.09D-32
 IDIUse=1 WtCom= 1.00D+00 WtEn= 0.00D+00
 Coeff-Com:  0.100D+01
 Coeff:      0.100D+01
 Gap=     1.414 Goal=   None    Shift=    0.000
 RMSDP=2.51D-17 MaxDP=1.11D-16              OVMax= 6.20D-17

 SCF Done:  E(UHF) = -0.498232909202     A.U. after    1 cycles
             Convg  =    0.2513D-16             -V/T =  1.9772
             S**2   =   0.7500
 KE= 5.098666670602D-01 PE=-1.008099576262D+00 EE= 0.000000000000D+00
 Annihilation of the first spin contaminant:
 S**2 before annihilation     0.7500,   after     0.7500
 Leave Link  502 at Mon Aug 12 23:49:31 2013, MaxMem=  134217728 cpu:       0.1
 (Enter /usr/local/lib/g03/l801.exe)
 Range of M.O.s used for correlation:     1     5
 NBasis=     5 NAE=     1 NBE=     0 NFC=     0 NFV=     0
 NROrb=      5 NOA=     1 NOB=     0 NVA=     4 NVB=     5
 *** There is no correlation energy for this system ***
 Leave Link  801 at Mon Aug 12 23:49:43 2013, MaxMem=  134217728 cpu:       0.0
 (Enter /usr/local/lib/g03/l906.exe)
 FulOut=F Deriv=T AODrv=T NAtomX=     1
   MMem=      253240  MDisk=           1 MDiskD=           1
  W3Min=          50 MinDsk=       50245 NBas6D=           5
 NBas2D=          18    NTT=          15    LW2=     2000000
    MDV=   134217440 MDiskM=      275453 NBas2p=          18
 Fully direct method using O(ONN) memory.
 IMap=   1
 JobTyp=2 Pass  1:  I=   1 to   1 NPSUse=  1 ParTrn=F ParDer=F DoDerP=T.
 Spin components of T(2) and E(2):
     alpha-alpha T2 =       0.0000000000D+00 E2=      0.0000000000D+00
     alpha-beta  T2 =       0.0000000000D+00 E2=      0.0000000000D+00
     beta-beta   T2 =       0.0000000000D+00 E2=      0.0000000000D+00
 The integrals were generated   1 times.
 (S**2,0)=  0.75000D+00           (S**2,1)=  0.75000D+00
 E(PUHF)=      -0.49823290920D+00        E(PMP2)=      -0.49823290920D+00
 ANorm=    0.1000000000D+01
 E2 =     0.0000000000D+00 EUMP2 =    -0.49823290920158D+00
 Leave Link  906 at Mon Aug 12 23:49:53 2013, MaxMem=  134217728 cpu:       0.1
 (Enter /usr/local/lib/g03/l1002.exe)
 Minotr:  UHF wavefunction.
          Computing MP2 derivatives.
          Using Z-Vector for PSCF gradient.
          Skipping F1 and S1 gradient terms here.
 DoAtom=T
          Direct CPHF calculation.
          Solving linear equations simultaneously.
          Differentiating once with respect to electric field.
                with respect to dipole field.
          Differentiating once with respect to nuclear coordinates.
          Requested convergence is 1.0D-10 RMS, and 1.0D-09 maximum.
          Secondary convergence is 1.0D-12 RMS, and 1.0D-12 maximum.
          NewPWx=F KeepS1=T KeepF1=T KeepIn=T MapXYZ=F.
          MDV=     134217719 using IRadAn=       0.
          Store integrals in memory, NReq=      800420.
 Symmetry not used in FoFDir.
 MinBra= 0 MaxBra= 1 Meth= 1.
 IRaf=       0 NMat=   1 IRICut=       1 DoRegI=T DoRafI=F ISym2E= 0 JSym2E=0.
          There are   1 degrees of freedom in the 1st order CPHF.
     0 vectors were produced by pass  0.
 End of Minotr Frequency-dependent properties file   721 does not exist.
 Leave Link 1002 at Mon Aug 12 23:50:06 2013, MaxMem=  134217728 cpu:       0.1
 (Enter /usr/local/lib/g03/l601.exe)
 Copying SCF densities to generalized density rwf, ISCF=1 IROHF=0.

 **********************************************************************

            Population analysis using the MP2 density.

 **********************************************************************

 Alpha  occ. eigenvalues --   -0.49823
 Alpha virt. eigenvalues --    0.91619   2.23090   2.23090   2.23090
  Beta virt. eigenvalues --    0.09502   1.10807   2.36586   2.36586   2.36586
     Alpha Molecular Orbital Coefficients
                           1         2         3         4         5
                           O         V         V         V         V
     EIGENVALUES --    -0.49823   0.91619   2.23090   2.23090   2.23090
   1 1   H  1S          0.42743   1.25780   0.00000   0.00000   0.00000
   2        2S          0.66545  -1.14975   0.00000   0.00000   0.00000
   3        3PX         0.00000   0.00000   0.00000   0.00000   1.00000
   4        3PY         0.00000   0.00000   0.00000   1.00000   0.00000
   5        3PZ         0.00000   0.00000   1.00000   0.00000   0.00000
     Beta Molecular Orbital Coefficients.
                           1         2         3         4         5
                           V         V         V         V         V
     EIGENVALUES --     0.09502   1.10807   2.36586   2.36586   2.36586
   1 1   H  1S          0.18458   1.31555   0.00000   0.00000   0.00000
   2        2S          0.86880  -1.00496   0.00000   0.00000   0.00000
   3        3PX         0.00000   0.00000   0.00000   0.00000   1.00000
   4        3PY         0.00000   0.00000   0.00000   1.00000   0.00000
   5        3PZ         0.00000   0.00000   1.00000   0.00000   0.00000
     ALPHA DENSITY MATRIX.
                           1         2         3         4         5
   1 1   H  1S          0.18270
   2        2S          0.28443   0.44282
   3        3PX         0.00000   0.00000   0.00000
   4        3PY         0.00000   0.00000   0.00000   0.00000
   5        3PZ         0.00000   0.00000   0.00000   0.00000   0.00000
     BETA DENSITY MATRIX.
                           1         2         3         4         5
   1 1   H  1S          0.00000
   2        2S          0.00000   0.00000
   3        3PX         0.00000   0.00000   0.00000
   4        3PY         0.00000   0.00000   0.00000   0.00000
   5        3PZ         0.00000   0.00000   0.00000   0.00000   0.00000
    Full Mulliken population analysis:
                           1         2         3         4         5
   1 1   H  1S          0.18270
   2        2S          0.18724   0.44282
   3        3PX         0.00000   0.00000   0.00000
   4        3PY         0.00000   0.00000   0.00000   0.00000
   5        3PZ         0.00000   0.00000   0.00000   0.00000   0.00000
     Gross orbital populations:
                         TOTAL     ALPHA     BETA      SPIN
   1 1   H  1S          0.36994   0.36994   0.00000   0.36994
   2        2S          0.63006   0.63006   0.00000   0.63006
   3        3PX         0.00000   0.00000   0.00000   0.00000
   4        3PY         0.00000   0.00000   0.00000   0.00000
   5        3PZ         0.00000   0.00000   0.00000   0.00000
          Condensed to atoms (all electrons):
              1
     1  H    1.000000
 Mulliken atomic charges:
              1
     1  H    0.000000
 Sum of Mulliken charges=   0.00000
 Atomic charges with hydrogens summed into heavy atoms:
              1
     1  H    0.000000
 Sum of Mulliken charges=   0.00000
          Atomic-Atomic Spin Densities.
              1
     1  H    1.000000
 Mulliken atomic spin densities:
              1
     1  H    1.000000
 Sum of Mulliken spin densities=   1.00000
 Electronic spatial extent (au):  <R**2>=     2.8673
 Charge=     0.0000 electrons
 Dipole moment (field-independent basis, Debye):
    X=     0.0000    Y=     0.0000    Z=     0.0000  Tot=     0.0000
 Quadrupole moment (field-independent basis, Debye-Ang):
   XX=    -1.2855   YY=    -1.2855   ZZ=    -1.2855
   XY=     0.0000   XZ=     0.0000   YZ=     0.0000
 Traceless Quadrupole moment (field-independent basis, Debye-Ang):
   XX=     0.0000   YY=     0.0000   ZZ=     0.0000
   XY=     0.0000   XZ=     0.0000   YZ=     0.0000
 Octapole moment (field-independent basis, Debye-Ang**2):
  XXX=     0.0000  YYY=     0.0000  ZZZ=    -0.0039  XYY=     0.0000
  XXY=     0.0000  XXZ=    -0.0013  XZZ=     0.0000  YZZ=     0.0000
  YYZ=    -0.0013  XYZ=     0.0000
 Hexadecapole moment (field-independent basis, Debye-Ang**3):
 XXXX=    -1.3719 YYYY=    -1.3719 ZZZZ=    -1.3719 XXXY=     0.0000
 XXXZ=     0.0000 YYYX=     0.0000 YYYZ=     0.0000 ZZZX=     0.0000
 ZZZY=     0.0000 XXYY=    -0.4573 XXZZ=    -0.4573 YYZZ=    -0.4573
 XXYZ=     0.0000 YYXZ=     0.0000 ZZXY=     0.0000
 N-N= 0.000000000000D+00 E-N=-1.008099576262D+00  KE= 5.098666670602D-01
 Orbital energies and kinetic energies (alpha):
                           1         2
       1  O            -0.49823   0.50987
       2  V             0.91619   1.77660
       3  V             2.23090   2.75000
       4  V             2.23090   2.75000
       5  V             2.23090   2.75000
 Orbital energies and kinetic energies (beta):
                           1         2
       1  V             0.09502   0.31345
       2  V             1.10807   1.97302
       3  V             2.36586   2.75000
       4  V             2.36586   2.75000
       5  V             2.36586   2.75000
 Total kinetic energy from orbitals= 5.098666670602D-01
                          Isotropic Fermi Contact Couplings
        Atom                 a.u.       MegaHertz       Gauss      10(-4) cm-1
     1  H(1)               0.29790    1331.58601     475.14298     444.16928
 --------------------------------------------------------
       Center         ----  Spin Dipole Couplings  ----
                      3XX-RR        3YY-RR        3ZZ-RR
 --------------------------------------------------------
     1   Atom        0.000000      0.000000      0.000000
 --------------------------------------------------------
                        XY            XZ            YZ
 --------------------------------------------------------
     1   Atom        0.000000      0.000000      0.000000
 --------------------------------------------------------


 ---------------------------------------------------------------------------------
              Anisotropic Spin Dipole Couplings in Principal Axis System
 ---------------------------------------------------------------------------------

       Atom             a.u.   MegaHertz   Gauss  10(-4) cm-1        Axes

              Baa     0.0000     0.000     0.000     0.000  1.0000  0.0000  0.0000
     1 H(1)   Bbb     0.0000     0.000     0.000     0.000  0.0000  1.0000  0.0000
              Bcc     0.0000     0.000     0.000     0.000  0.0000  0.0000  1.0000
 

 ---------------------------------------------------------------------------------

 No NMR shielding tensors so no spin-rotation constants.
 Leave Link  601 at Mon Aug 12 23:50:17 2013, MaxMem=  134217728 cpu:       0.5
 (Enter /usr/local/lib/g03/l701.exe)
 Compute integral first derivatives.
 ... and contract with generalized density number  2.
 Leave Link  701 at Mon Aug 12 23:50:29 2013, MaxMem=  134217728 cpu:       0.2
 (Enter /usr/local/lib/g03/l702.exe)
 L702 exits ... SP integral derivatives will be done elsewhere.
 Leave Link  702 at Mon Aug 12 23:50:40 2013, MaxMem=  134217728 cpu:       0.0
 (Enter /usr/local/lib/g03/l703.exe)
 Compute integral first derivatives, UseDBF=F.
 Integral derivatives from FoFDir, PRISM(SPDF).
 Use density number 2.
 Symmetry not used in FoFDir.
 MinBra= 0 MaxBra= 1 Meth= 1.
 IRaf=       0 NMat=   1 IRICut=       1 DoRegI=T DoRafI=F ISym2E= 0 JSym2E=0.
 Leave Link  703 at Mon Aug 12 23:50:52 2013, MaxMem=  134217728 cpu:       0.1
 (Enter /usr/local/lib/g03/l716.exe)
 Use density number 2.
 Dipole        = 0.00000000D+00 0.00000000D+00 4.33680869D-19
 -------------------------------------------------------------------
 Center     Atomic                   Forces (Hartrees/Bohr)
 Number     Number              X              Y              Z
 -------------------------------------------------------------------
    1          1           0.000000000    0.000000000    0.000000000
 -------------------------------------------------------------------
 Cartesian Forces:  Max     0.000000000 RMS     0.000000000
 Leave Link  716 at Mon Aug 12 23:51:05 2013, MaxMem=  134217728 cpu:       0.0
 (Enter /usr/local/lib/g03/l106.exe)
 NDeriv=   3 NFrqRd=  0 LFDDif=       0
 NDeriv=   3 NFrqRd=  0 LFDDif=       0
 Re-enter D2Numr: IAtom=  1 IXYZ=3 IStep= 1.
 Skip step-back as it is equivalent to step-up.
 Maximum difference in off-diagonal FC elements:
 I=  3 J=  1 Difference=    8.5736686213D-30
 Max difference between analytic and numerical forces:
 I=  0 Difference=    0.0000000000D+00
 Leave Link  106 at Mon Aug 12 23:51:16 2013, MaxMem=  134217728 cpu:       0.0
 (Enter /usr/local/lib/g03/l716.exe)
 Dipole        = 0.00000000D+00 0.00000000D+00 0.00000000D+00
 Full mass-weighted force constant matrix:
 Low frequencies ---    0.0000    0.0000    0.0001
 Diagonal vibrational polarizability:
        0.0000000       0.0000000       0.0000000
 Harmonic frequencies (cm**-1), IR intensities (KM/Mole), Raman scattering
 activities (A**4/AMU), depolarization ratios for plane and unpolarized
 incident light, reduced masses (AMU), force constants (mDyne/A),
 and normal coordinates:

 -------------------
 - Thermochemistry -
 -------------------
 Temperature   298.150 Kelvin.  Pressure   1.00000 Atm.
 Atom  1 has atomic number  1 and mass   1.00783
 Molecular mass:     1.00783 amu.
 Zero-point vibrational energy          0.0 (Joules/Mol)
                                    0.00000 (Kcal/Mol)
 Vibrational temperatures: 
          (Kelvin)
 
 Zero-point correction=                           0.000000 (Hartree/Particle)
 Thermal correction to Energy=                    0.001416
 Thermal correction to Enthalpy=                  0.002360
 Thermal correction to Gibbs Free Energy=        -0.010654
 Sum of electronic and zero-point Energies=             -0.498233
 Sum of electronic and thermal Energies=                -0.496817
 Sum of electronic and thermal Enthalpies=              -0.495872
 Sum of electronic and thermal Free Energies=           -0.508887
 
                     E (Thermal)             CV                S
                      KCal/Mol        Cal/Mol-Kelvin    Cal/Mol-Kelvin
 Total                    0.889              2.981             27.392
 Electronic               0.000              0.000              1.377
 Translational            0.889              2.981             26.014
 Rotational               0.000              0.000              0.000
 Vibrational              0.000              0.000              0.000
                       Q            Log10(Q)             Ln(Q)
 Total Bot       0.795358D+05          4.900563         11.283963
 Total V=0       0.795358D+05          4.900563         11.283963
 Vib (Bot)       0.100000D+01          0.000000          0.000000
 Vib (V=0)       0.100000D+01          0.000000          0.000000
 Electronic      0.200000D+01          0.301030          0.693147
 Translational   0.397679D+05          4.599533         10.590816
 Rotational      0.100000D+01          0.000000          0.000000
 ***** Axes restored to original set *****
 -------------------------------------------------------------------
 Center     Atomic                   Forces (Hartrees/Bohr)
 Number     Number              X              Y              Z
 -------------------------------------------------------------------
    1          1           0.000000000    0.000000000    0.000000000
 -------------------------------------------------------------------
 Cartesian Forces:  Max     0.000000000 RMS     0.000000000
 Force constants in Cartesian coordinates: 
                1             2             3
      1  0.000000D+00
      2  0.000000D+00  0.000000D+00
      3  0.000000D+00  0.000000D+00  0.000000D+00
 Leave Link  716 at Mon Aug 12 23:51:27 2013, MaxMem=  134217728 cpu:       0.0
 (Enter /usr/local/lib/g03/l103.exe)

 GradGradGradGradGradGradGradGradGradGradGradGradGradGradGradGradGradGrad
 Berny optimization.
 Search for a local minimum.
 Step number   1 out of a maximum of   2
 All quantities printed in internal units (Hartrees-Bohrs-Radians)
 Second derivative matrix not updated -- analytic derivatives used.
 The second derivative matrix:
                          X1        Y1        Z1
           X1           0.00000
           Y1           0.00000   0.00000
           Z1           0.00000   0.00000   0.00000
     Eigenvalues --- 
 Angle between quadratic step and forces=  90.00 degrees.
 Linear search not attempted -- first point.
 TrRot=  0.000000  0.000000  0.000000  0.000000  0.000000  0.000000
 Variable       Old X    -DE/DX   Delta X   Delta X   Delta X     New X
                                 (Linear)    (Quad)   (Total)
    X1        0.00000   0.00000   0.00000   0.00000   0.00000   0.00000
    Y1        0.00000   0.00000   0.00000   0.00000   0.00000   0.00000
    Z1        0.00000   0.00000   0.00000   0.00000   0.00000   0.00000
         Item               Value     Threshold  Converged?
 Maximum Force            0.000000     0.000450     YES
 RMS     Force            0.000000     0.000300     YES
 Maximum Displacement     0.000000     0.001800     YES
 RMS     Displacement     0.000000     0.001200     YES
 Predicted change in Energy= 0.000000D+00
 Optimization completed.
    -- Stationary point found.
 GradGradGradGradGradGradGradGradGradGradGradGradGradGradGradGradGradGrad

 Leave Link  103 at Mon Aug 12 23:51:39 2013, MaxMem=  134217728 cpu:       0.0
 (Enter /usr/local/lib/g03/l9999.exe)

 Test job not archived.
 1\1\GINC-MARCUS\Freq\UMP2-FC\6-31G(d,p)\H1(2)\BOHR\12-Aug-2013\0\\#P M
 P2/6-31G** freq=Numer # pop=full gfinput iop(6/7=3)\\job\\0,2\H,0.,0.,
 0.\\Version=IA32L-G03RevD.01\State=2-A1G\HF=-0.4982329\MP2=-0.4982329\
 PUHF=-0.4982329\PMP2-0=-0.4982329\S2=0.75\S2-1=0.75\S2A=0.75\RMSD=2.63
 3e-17\RMSF=0.000e+00\Thermal=0.0014163\Dipole=0.,0.,0.\DipoleDeriv=0.,
 0.,0.,0.,0.,0.,0.,0.,0.\PG=OH [O(H1)]\NImag=0\\0.,0.,0.,0.,0.,0.\\0.,0
 .,0.\\\@


 SLITHERY-DITHERY
 FRIEDRICH A. KEKULE
 DREAMT ON A BUS OF THINGS
 FREUD WOULD THINK KEEN.
 MOST OF THE TIME THEY WERE
 HERPETOLOGICAL
 BITING THEIR TAILS IN THE
 SHAPE OF BENZENE.
 Job cpu time:  0 days  0 hours  2 minutes 11.0 seconds.
 File lengths (MBytes):  RWF=     11 Int=      0 D2E=      0 Chk=      9 Scr=      1
 Normal termination of Gaussian 03 at Mon Aug 12 23:51:51 2013.
