    nwchem, len=6
   freq.nw, len=7
 argument  1 = freq.nw
                                         
                                         


              Northwest Computational Chemistry Package (NWChem) 6.0
              ------------------------------------------------------


                    Environmental Molecular Sciences Laboratory
                       Pacific Northwest National Laboratory
                                Richland, WA 99352

                              Copyright (c) 1994-2010
                       Pacific Northwest National Laboratory
                            Battelle Memorial Institute

             NWChem is an open-source computational chemistry package
                        distributed under the terms of the
                      Educational Community License (ECL) 2.0
             A copy of the license is included with this distribution
                              in the LICENSE.TXT file

                                  ACKNOWLEDGMENT
                                  --------------

            This software and its documentation were developed at the
            EMSL at Pacific Northwest National Laboratory, a multiprogram
            national laboratory, operated for the U.S. Department of Energy
            by Battelle under Contract Number DE-AC05-76RL01830. Support
            for this work was provided by the Department of Energy Office
            of Biological and Environmental Research, Office of Basic
            Energy Sciences, and the Office of Advanced Scientific Computing.


           Job information
           ---------------

    hostname      = clovis1
    program       = nwchem
    date          = Mon May  6 06:39:13 2013

    compiled      = Tue_Nov_09_10:54:15_2010
    source        = /home/d3y133/nwchem-releases/nwchem-6.0-linux
    nwchem branch = 6.0
    input         = freq.nw
    prefix        = h2o_freq.
    data base     = ./h2o_freq.db
    status        = startup
    nproc         =        1
    time left     =     -1s



           Memory information
           ------------------

    heap     =   13107201 doubles =    100.0 Mbytes
    stack    =   13107201 doubles =    100.0 Mbytes
    global   =   26214400 doubles =    200.0 Mbytes (distinct from heap & stack)
    total    =   52428802 doubles =    400.0 Mbytes
    verify   = yes
    hardfail = no 


           Directory information
           ---------------------

  0 permanent = .
  0 scratch   = .




                                NWChem Input Module
                                -------------------



 Scaling coordinates for geometry "geometry" by  1.889725989
 (inverse scale =  0.529177249)

 C2V symmetry detected

          ------
          auto-z
          ------


                             Geometry "geometry" -> ""
                             -------------------------

 Output coordinates in angstroms (scale by  1.889725989 to convert to a.u.)

  No.       Tag          Charge          X              Y              Z
 ---- ---------------- ---------- -------------- -------------- --------------
    1 O                    8.0000     0.00000000     0.00000000     0.14142136
    2 H                    1.0000     0.70710678     0.00000000    -0.56568542
    3 H                    1.0000    -0.70710678     0.00000000    -0.56568542

      Atomic Mass 
      ----------- 

      O                 15.994910
      H                  1.007825


 Effective nuclear repulsion energy (a.u.)       8.8410208052

            Nuclear Dipole moment (a.u.) 
            ----------------------------
        X                 Y               Z
 ---------------- ---------------- ----------------
     0.0000000000     0.0000000000     0.0000000000

      Symmetry information
      --------------------

 Group name             C2v       
 Group number             16
 Group order               4
 No. of unique centers     2

      Symmetry unique atoms

     1    2



                                Z-matrix (autoz)
                                -------- 

 Units are Angstrom for bonds and degrees for angles

      Type          Name      I     J     K     L     M      Value
      ----------- --------  ----- ----- ----- ----- ----- ----------
    1 Stretch                  1     2                       1.00000
    2 Stretch                  1     3                       1.00000
    3 Bend                     2     1     3                90.00000


            XYZ format geometry
            -------------------
     3
 geometry
 O                     0.00000000     0.00000000     0.14142136
 H                     0.70710678     0.00000000    -0.56568542
 H                    -0.70710678     0.00000000    -0.56568542

 ==============================================================================
                                internuclear distances
 ------------------------------------------------------------------------------
       center one      |      center two      | atomic units |  angstroms
 ------------------------------------------------------------------------------
    2 H                |   1 O                |     1.88973  |     1.00000
    3 H                |   1 O                |     1.88973  |     1.00000
 ------------------------------------------------------------------------------
                         number of included internuclear distances:          2
 ==============================================================================



 ==============================================================================
                                 internuclear angles
 ------------------------------------------------------------------------------
        center 1       |       center 2       |       center 3       |  degrees
 ------------------------------------------------------------------------------
    2 H                |   1 O                |   3 H                |    90.00
 ------------------------------------------------------------------------------
                            number of included internuclear angles:          1
 ==============================================================================



  library name resolved from: .nwchemrc
  library file name is: </apps/nwchem/6.0/usr.local.lib.nwchem/libraries/>
  
                      Basis "ao basis" -> "" (cartesian)
                      -----
  H (Hydrogen)
  ------------
            Exponent  Coefficients 
       -------------- ---------------------------------------------------------
  1 S  3.42525091E+00  0.154329
  1 S  6.23913730E-01  0.535328
  1 S  1.68855400E-01  0.444635

  O (Oxygen)
  ----------
            Exponent  Coefficients 
       -------------- ---------------------------------------------------------
  1 S  1.30709320E+02  0.154329
  1 S  2.38088610E+01  0.535328
  1 S  6.44360830E+00  0.444635

  2 S  5.03315130E+00 -0.099967
  2 S  1.16959610E+00  0.399513
  2 S  3.80389000E-01  0.700115

  3 P  5.03315130E+00  0.155916
  3 P  1.16959610E+00  0.607684
  3 P  3.80389000E-01  0.391957



 Summary of "ao basis" -> "" (cartesian)
 ------------------------------------------------------------------------------
       Tag                 Description            Shells   Functions and Types
 ---------------- ------------------------------  ------  ---------------------
 H                           sto-3g                  1        1   1s
 O                           sto-3g                  3        5   2s1p


                              H2O : STO-3G ccsd freq
                              ----------------------


                   NWChem Nuclear Hessian and Frequency Analysis
                   ---------------------------------------------



                         NWChem Finite-difference Hessian
                         --------------------------------


                                 NWChem SCF Module
                                 -----------------


                              H2O : STO-3G ccsd freq



  ao basis        = "ao basis"
  functions       =     7
  atoms           =     3
  closed shells   =     5
  open shells     =     0
  charge          =   0.00
  wavefunction    = RHF 
  input vectors   = atomic
  output vectors  = ./h2o_freq.movecs
  use symmetry    = T
  symmetry adapt  = T


 Summary of "ao basis" -> "ao basis" (cartesian)
 ------------------------------------------------------------------------------
       Tag                 Description            Shells   Functions and Types
 ---------------- ------------------------------  ------  ---------------------
 H                           sto-3g                  1        1   1s
 O                           sto-3g                  3        5   2s1p


      Symmetry analysis of basis
      --------------------------

        a1          4
        a2          0
        b1          2
        b2          1


 Forming initial guess at       0.1s


      Superposition of Atomic Density Guess
      -------------------------------------

 Sum of atomic energies:         -74.71095592

      Non-variational initial energy
      ------------------------------

 Total energy =     -74.589235
 1-e energy   =    -121.161375
 2-e energy   =      37.731120
 HOMO         =      -0.248716
 LUMO         =       0.472077


      Symmetry analysis of molecular orbitals - initial
      -------------------------------------------------

  Numbering of irreducible representations: 

     1 a1          2 a2          3 b1          4 b2      

  Orbital symmetries:

     1 a1          2 a1          3 b1          4 a1          5 b2      
     6 a1          7 b1      


 Starting SCF solution at       0.1s



 ----------------------------------------------
         Quadratically convergent ROHF

 Convergence threshold     :          1.000E-06
 Maximum no. of iterations :           30
 Final Fock-matrix accuracy:          1.000E-08
 ----------------------------------------------


 #quartets = 7.900D+01 #integrals = 1.640D+02 #direct =  0.0% #cached =100.0%


 Integral file          = ./h2o_freq.aoints.0
 Record size in doubles =  65536        No. of integs per rec  =  43688
 Max. records in memory =      2        Max. records in file   = ******
 No. of bits per label  =      8        No. of bits per value  =     64


              iter       energy          gnorm     gmax       time
             ----- ------------------- --------- --------- --------
                 1      -74.9141268226  7.01D-01  5.74D-01      0.0
                 2      -74.9602770208  1.41D-01  1.02D-01      0.0
                 3      -74.9611584853  1.79D-02  1.39D-02      0.0
                 4      -74.9611711393  1.97D-05  1.72D-05      0.1
                 5      -74.9611711394  3.06D-11  2.55D-11      0.1


       Final RHF  results 
       ------------------ 

         Total SCF energy =    -74.961171139359
      One-electron energy =   -121.660434430281
      Two-electron energy =     37.858242485709
 Nuclear repulsion energy =      8.841020805213

        Time for solution =      0.0s



       Symmetry analysis of molecular orbitals - final
       -----------------------------------------------

  Numbering of irreducible representations: 

     1 a1          2 a2          3 b1          4 b2      

  Orbital symmetries:

     1 a1          2 a1          3 b1          4 a1          5 b2      
     6 a1          7 b1      

             Final eigenvalues
             -----------------

              1      
    1  -20.2621
    2   -1.2623
    3   -0.5694
    4   -0.4808
    5   -0.3975
    6    0.5825
    7    0.6581

                       ROHF Final Molecular Orbital Analysis
                       -------------------------------------

 Vector    2  Occ=2.000000D+00  E=-1.262275D+00  Symmetry=a1
              MO Center=  4.9D-16, -2.5D-17, -6.2D-02, r^2= 5.4D-01
   Bfn.  Coefficient  Atom+Function         Bfn.  Coefficient  Atom+Function  
  ----- ------------  ---------------      ----- ------------  ---------------
     2      0.845038  1 O  s                  1     -0.233298  1 O  s          
     6      0.154214  2 H  s                  7      0.154214  3 H  s          

 Vector    3  Occ=2.000000D+00  E=-5.693767D-01  Symmetry=b1
              MO Center= -5.6D-16,  3.4D-33, -1.6D-01, r^2= 8.2D-01
   Bfn.  Coefficient  Atom+Function         Bfn.  Coefficient  Atom+Function  
  ----- ------------  ---------------      ----- ------------  ---------------
     3      0.632726  1 O  px                 7     -0.453821  3 H  s          
     6      0.453821  2 H  s          

 Vector    4  Occ=2.000000D+00  E=-4.807812D-01  Symmetry=a1
              MO Center=  2.8D-17, -3.9D-17,  1.2D-01, r^2= 7.0D-01
   Bfn.  Coefficient  Atom+Function         Bfn.  Coefficient  Atom+Function  
  ----- ------------  ---------------      ----- ------------  ---------------
     5      0.721797  1 O  pz                 2      0.560833  1 O  s          
     6     -0.309011  2 H  s                  7     -0.309011  3 H  s          

 Vector    5  Occ=2.000000D+00  E=-3.974915D-01  Symmetry=b2
              MO Center= -4.6D-33,  5.8D-17,  1.4D-01, r^2= 4.2D-01
   Bfn.  Coefficient  Atom+Function         Bfn.  Coefficient  Atom+Function  
  ----- ------------  ---------------      ----- ------------  ---------------
     4      1.000000  1 O  py         

 Vector    6  Occ=0.000000D+00  E= 5.825241D-01  Symmetry=a1
              MO Center=  4.4D-16,  6.2D-18, -4.2D-01, r^2= 1.0D+00
   Bfn.  Coefficient  Atom+Function         Bfn.  Coefficient  Atom+Function  
  ----- ------------  ---------------      ----- ------------  ---------------
     5      0.809904  1 O  pz                 2     -0.778174  1 O  s          
     6      0.745860  2 H  s                  7      0.745860  3 H  s          

 Vector    7  Occ=0.000000D+00  E= 6.580765D-01  Symmetry=b1
              MO Center= -3.3D-16, -1.4D-32, -2.9D-01, r^2= 1.0D+00
   Bfn.  Coefficient  Atom+Function         Bfn.  Coefficient  Atom+Function  
  ----- ------------  ---------------      ----- ------------  ---------------
     3      0.922986  1 O  px                 7      0.822063  3 H  s          
     6     -0.822063  2 H  s          


 center of mass
 --------------
 x =   0.00000000 y =   0.00000000 z =   0.11770266

 moments of inertia (a.u.)
 ------------------
           3.196225286295           0.000000000000           0.000000000000
           0.000000000000           6.795233176450           0.000000000000
           0.000000000000           0.000000000000           3.599007890155

  Mulliken analysis of the total density
  --------------------------------------

    Atom       Charge   Shell Charges
 -----------   ------   -------------------------------------------------------
    1 O    8     8.31   2.00  1.87  4.44
    2 H    1     0.84   0.84
    3 H    1     0.84   0.84

       Multipole analysis of the density wrt the origin
       ------------------------------------------------

     L   x y z        total         open         nuclear
     -   - - -        -----         ----         -------
     0   0 0 0      0.000000      0.000000     10.000000

     1   1 0 0      0.000000      0.000000      0.000000
     1   0 1 0      0.000000      0.000000      0.000000
     1   0 0 1     -0.688329      0.000000      0.000000

     2   2 0 0     -3.556517      0.000000      3.571064
     2   1 1 0      0.000000      0.000000      0.000000
     2   1 0 1      0.000000      0.000000      0.000000
     2   0 2 0     -4.565013      0.000000      0.000000
     2   0 1 1      0.000000      0.000000      0.000000
     2   0 0 2     -3.853297      0.000000      2.856851


 Parallel integral file used       1 records with       0 large values



                   Four-Index Transformation
                   -------------------------
          Number of basis functions:              7
          Number of shells:                       5
          Number of occupied orbitals:            5
          Number of occ. correlated orbitals:     5
          Block length:                          16
          Superscript MO index range:      1 -    5
          Subscript MO index range:        1 -    7
          MO coefficients read from:  ./h2o_freq.movecs        
          Number of operator matrices in core:   30
          Half-transformed integrals produced

     Pass:    1     Index range:    1  -    5     Time:      0.01
 ------------------------------------------
 MP2 Energy (coupled cluster initial guess)
 ------------------------------------------
 Reference energy:            -74.961171139359237
 MP2 Corr. energy:             -0.041913360131140
 Total MP2 energy:            -75.003084499490370


 ****************************************************************************
              the segmented parallel ccsd program:    1 nodes
 ****************************************************************************




 level of theory    ccsd
 number of core         0
 number of occupied     5
 number of virtual      2
 number of deleted      0
 total functions        7
 number of shells       5
 basis label          566



   ***** ccsd parameters *****
   iprt   =     0
   convi  = 0.100E-05
   maxit  =    20
   mxvec  =     5
 memory             26213681
  IO offset    20.0000000000000     
  IO error message >End of File
  file_read_ga: failing writing to ./h2o_freq.t2
  Failed reading restart vector from ./h2o_freq.t2
  Using MP2 initial guess vector 


-------------------------------------------------------------------------
 iter     correlation     delta       rms       T2     Non-T2      Main
             energy      energy      error      ampl     ampl      Block
                                                time     time      time
-------------------------------------------------------------------------
   1     -0.0526484140 -5.265D-02  5.542D-02     0.01     0.00     0.01
   2     -0.0559791113 -3.331D-03  2.010D-02     0.00     0.00     0.00
   3     -0.0578037788 -1.825D-03  1.221D-03     0.00     0.00     0.00
   4     -0.0579595953 -1.558D-04  3.181D-04     0.00     0.00     0.00
   5     -0.0579677605 -8.165D-06  5.278D-05     0.00     0.00     0.00
   6     -0.0579648263  2.934D-06  5.527D-06     0.00     0.00     0.00
   7     -0.0579651031 -2.768D-07  1.953D-06     0.00     0.00     0.00
   8     -0.0579651696 -6.651D-08  1.064D-07     0.00     0.00     0.00
                  *************converged*************
-------------------------------------------------------------------------

 -----------
 CCSD Energy
 -----------
 Reference energy:             -74.961171139359237
 CCSD corr. energy:             -0.057965169619082
 Total CCSD energy:            -75.019136308978318

 routine      calls  cpu(0)   cpu-min  cpu-ave  cpu-max   i/o 
 aoccsd          1     0.00     0.00     0.00     0.00    0.00
 iterdrv         1     0.05     0.05     0.05     0.05    0.00
 pampt           8     0.00     0.00     0.00     0.00    0.00
 t2pm            8     0.00     0.00     0.00     0.00    0.00
 sxy             8     0.00     0.00     0.00     0.00    0.00
 ints          225     0.01     0.01     0.01     0.01    0.00
 f_write        30     0.00     0.00     0.00     0.00    0.00
 t2eri         120     0.00     0.00     0.00     0.00    0.00
 idx2          120     0.00     0.00     0.00     0.00    0.00
 idx34           8     0.00     0.00     0.00     0.00    0.00
 ht2pm           8     0.00     0.00     0.00     0.00    0.00
 itm             8     0.00     0.00     0.00     0.00    0.00
 pdiis           8     0.00     0.00     0.00     0.00    0.00
 r_read        105     0.00     0.00     0.00     0.00    0.00
 Total                 0.08     0.08     0.08     0.08    0.00

 Saving state for ccsd with suffix hess
        ./h2o_freq.movecs
        ./h2o_freq.t2

  
 initial hessian

 zero matrix

  
 atom:   1 xyz: 1(+) wall time:       0.3      date:  Mon May  6 06:39:13 2013

                         NWChem Numerical Gradients Module
                         ---------------------------------


 No. of totally-symmetric internal modes =   3

                                 NWChem SCF Module
                                 -----------------


                              H2O : STO-3G ccsd freq



  ao basis        = "ao basis"
  functions       =     7
  atoms           =     3
  closed shells   =     5
  open shells     =     0
  charge          =   0.00
  wavefunction    = RHF 
  input vectors   = ./h2o_freq.movecs
  output vectors  = ./h2o_freq.movecs
  use symmetry    = F
  symmetry adapt  = F


 Forming initial guess at       0.3s


 Starting SCF solution at       0.3s



       Final RHF  results 
       ------------------ 

         Total SCF energy =    -74.961170802505
      One-electron energy =   -121.660434703595
      Two-electron energy =     37.858242503140
 Nuclear repulsion energy =      8.841021397951

        Time for solution =      0.0s




                   Four-Index Transformation
                   -------------------------
          Number of basis functions:              7
          Number of shells:                       5
          Number of occupied orbitals:            5
          Number of occ. correlated orbitals:     5
          Block length:                          16
          Superscript MO index range:      1 -    5
          Subscript MO index range:        1 -    7
          MO coefficients read from:  ./h2o_freq.movecs        
          Number of operator matrices in core:   30
          Half-transformed integrals produced

     Pass:    1     Index range:    1  -    5     Time:      0.01


 ****************************************************************************
              the segmented parallel ccsd program:    1 nodes
 ****************************************************************************




 level of theory    ccsd
 number of core         0
 number of occupied     5
 number of virtual      2
 number of deleted      0
 total functions        7
 number of shells       5
 basis label          566



   ***** ccsd parameters *****
   iprt   =     0
   convi  = 0.100E-05
   maxit  =    20
   mxvec  =     5
 memory             26213340
  Restarting from old vector in ./h2o_freq.t2


-------------------------------------------------------------------------
 iter     correlation     delta       rms       T2     Non-T2      Main
             energy      energy      error      ampl     ampl      Block
                                                time     time      time
-------------------------------------------------------------------------
   1     -0.0579648381 -5.796D-02  4.300D-04     0.01     0.00     0.01
   2     -0.0579650582 -2.202D-07  1.689D-04     0.00     0.00     0.00
   3     -0.0579651722 -1.140D-07  2.303D-05     0.00     0.00     0.00
   4     -0.0579651853 -1.311D-08  3.831D-06     0.00     0.00     0.00
   5     -0.0579651885 -3.190D-09  4.120D-07     0.00     0.00     0.00
                  *************converged*************
-------------------------------------------------------------------------

 -----------
 CCSD Energy
 -----------
 Reference energy:             -74.961170802504597
 CCSD corr. energy:             -0.057965188486848
 Total CCSD energy:            -75.019135990991444

 routine      calls  cpu(0)   cpu-min  cpu-ave  cpu-max   i/o 
 aoccsd          1     0.00     0.00     0.00     0.00    0.00
 iterdrv         1     0.05     0.05     0.05     0.05    0.00
 pampt           5     0.00     0.00     0.00     0.00    0.00
 t2pm            5     0.00     0.00     0.00     0.00    0.00
 sxy             5     0.00     0.00     0.00     0.00    0.00
 ints          225     0.01     0.01     0.01     0.01    0.00
 f_write        30     0.00     0.00     0.00     0.00    0.00
 t2eri          75     0.00     0.00     0.00     0.00    0.00
 idx2           75     0.00     0.00     0.00     0.00    0.00
 idx34           5     0.00     0.00     0.00     0.00    0.00
 ht2pm           5     0.00     0.00     0.00     0.00    0.00
 itm             5     0.00     0.00     0.00     0.00    0.00
 pdiis           5     0.00     0.00     0.00     0.00    0.00
 r_read         60     0.00     0.00     0.00     0.00    0.00
 Total                 0.07     0.07     0.07     0.07    0.00
 Reference energy         -75.01913599

 Finite difference step  1.00000D-02
 Use five point formula F

                                 NWChem SCF Module
                                 -----------------


                              H2O : STO-3G ccsd freq



  ao basis        = "ao basis"
  functions       =     7
  atoms           =     3
  closed shells   =     5
  open shells     =     0
  charge          =   0.00
  wavefunction    = RHF 
  input vectors   = ./h2o_freq.movecs
  output vectors  = ./h2o_freq.movecs
  use symmetry    = F
  symmetry adapt  = F


 Forming initial guess at       0.5s


 Starting SCF solution at       0.5s



       Final RHF  results 
       ------------------ 

         Total SCF energy =    -74.961130379762
      One-electron energy =   -121.660467911615
      Two-electron energy =     37.858245009174
 Nuclear repulsion energy =      8.841092522679

        Time for solution =      0.0s




                   Four-Index Transformation
                   -------------------------
          Number of basis functions:              7
          Number of shells:                       5
          Number of occupied orbitals:            5
          Number of occ. correlated orbitals:     5
          Block length:                          16
          Superscript MO index range:      1 -    5
          Subscript MO index range:        1 -    7
          MO coefficients read from:  ./h2o_freq.movecs        
          Number of operator matrices in core:   30
          Half-transformed integrals produced

     Pass:    1     Index range:    1  -    5     Time:      0.01


 ****************************************************************************
              the segmented parallel ccsd program:    1 nodes
 ****************************************************************************




 level of theory    ccsd
 number of core         0
 number of occupied     5
 number of virtual      2
 number of deleted      0
 total functions        7
 number of shells       5
 basis label          566



   ***** ccsd parameters *****
   iprt   =     0
   convi  = 0.100E-05
   maxit  =    20
   mxvec  =     5
 memory             26213340
  Restarting from old vector in ./h2o_freq.t2


-------------------------------------------------------------------------
 iter     correlation     delta       rms       T2     Non-T2      Main
             energy      energy      error      ampl     ampl      Block
                                                time     time      time
-------------------------------------------------------------------------
   1     -0.0579338460 -5.793D-02  4.381D-03     0.01     0.00     0.01
   2     -0.0579558225 -2.198D-05  1.672D-03     0.00     0.00     0.00
   3     -0.0579672037 -1.138D-05  2.351D-04     0.00     0.00     0.00
   4     -0.0579685223 -1.319D-06  3.966D-05     0.00     0.00     0.00
   5     -0.0579688412 -3.189D-07  4.567D-06     0.00     0.00     0.00
   6     -0.0579688482 -6.960D-09  8.306D-07     0.00     0.00     0.00
                  *************converged*************
-------------------------------------------------------------------------

 -----------
 CCSD Energy
 -----------
 Reference energy:             -74.961130379761983
 CCSD corr. energy:             -0.057968848185177
 Total CCSD energy:            -75.019099227947166

 routine      calls  cpu(0)   cpu-min  cpu-ave  cpu-max   i/o 
 aoccsd          1     0.00     0.00     0.00     0.00    0.00
 iterdrv         1     0.05     0.05     0.05     0.05    0.00
 pampt           6     0.00     0.00     0.00     0.00    0.00
 t2pm            6     0.00     0.00     0.00     0.00    0.00
 sxy             6     0.00     0.00     0.00     0.00    0.00
 ints          225     0.01     0.01     0.01     0.01    0.00
 f_write        30     0.00     0.00     0.00     0.00    0.00
 t2eri          90     0.00     0.00     0.00     0.00    0.00
 idx2           90     0.00     0.00     0.00     0.00    0.00
 idx34           6     0.00     0.00     0.00     0.00    0.00
 ht2pm           6     0.00     0.00     0.00     0.00    0.00
 itm             6     0.00     0.00     0.00     0.00    0.00
 pdiis           6     0.00     0.00     0.00     0.00    0.00
 r_read         75     0.00     0.00     0.00     0.00    0.00
 Total                 0.07     0.07     0.07     0.07    0.00
 step     1 energy         -75.01909923
                                 NWChem SCF Module
                                 -----------------


                              H2O : STO-3G ccsd freq



  ao basis        = "ao basis"
  functions       =     7
  atoms           =     3
  closed shells   =     5
  open shells     =     0
  charge          =   0.00
  wavefunction    = RHF 
  input vectors   = ./h2o_freq.movecs
  output vectors  = ./h2o_freq.movecs
  use symmetry    = F
  symmetry adapt  = F


 Forming initial guess at       0.6s


 Starting SCF solution at       0.6s



       Final RHF  results 
       ------------------ 

         Total SCF energy =    -74.961143853847
      One-electron energy =   -121.660456844619
      Two-electron energy =     37.858244175472
 Nuclear repulsion energy =      8.841068815300

        Time for solution =      0.0s




                   Four-Index Transformation
                   -------------------------
          Number of basis functions:              7
          Number of shells:                       5
          Number of occupied orbitals:            5
          Number of occ. correlated orbitals:     5
          Block length:                          16
          Superscript MO index range:      1 -    5
          Subscript MO index range:        1 -    7
          MO coefficients read from:  ./h2o_freq.movecs        
          Number of operator matrices in core:   30
          Half-transformed integrals produced

     Pass:    1     Index range:    1  -    5     Time:      0.01


 ****************************************************************************
              the segmented parallel ccsd program:    1 nodes
 ****************************************************************************




 level of theory    ccsd
 number of core         0
 number of occupied     5
 number of virtual      2
 number of deleted      0
 total functions        7
 number of shells       5
 basis label          566



   ***** ccsd parameters *****
   iprt   =     0
   convi  = 0.100E-05
   maxit  =    20
   mxvec  =     5
 memory             26213340
  Restarting from old vector in ./h2o_freq.t2


-------------------------------------------------------------------------
 iter     correlation     delta       rms       T2     Non-T2      Main
             energy      energy      error      ampl     ampl      Block
                                                time     time      time
-------------------------------------------------------------------------
   1     -0.0579327399 -5.793D-02  4.179D-03     0.01     0.00     0.01
   2     -0.0579547153 -2.198D-05  1.693D-03     0.00     0.00     0.00
   3     -0.0579660300 -1.131D-05  2.217D-04     0.00     0.00     0.00
   4     -0.0579673127 -1.283D-06  3.686D-05     0.00     0.00     0.00
   5     -0.0579676224 -3.097D-07  3.881D-06     0.00     0.00     0.00
   6     -0.0579676300 -7.562D-09  5.408D-07     0.00     0.00     0.00
                  *************converged*************
-------------------------------------------------------------------------

 -----------
 CCSD Energy
 -----------
 Reference energy:             -74.961143853847290
 CCSD corr. energy:             -0.057967629962409
 Total CCSD energy:            -75.019111483809695

 routine      calls  cpu(0)   cpu-min  cpu-ave  cpu-max   i/o 
 aoccsd          1     0.00     0.00     0.00     0.00    0.00
 iterdrv         1     0.05     0.05     0.05     0.05    0.00
 pampt           6     0.00     0.00     0.00     0.00    0.00
 t2pm            6     0.00     0.00     0.00     0.00    0.00
 sxy             6     0.00     0.00     0.00     0.00    0.00
 ints          225     0.01     0.01     0.01     0.01    0.00
 f_write        30     0.00     0.00     0.00     0.00    0.00
 t2eri          90     0.00     0.00     0.00     0.00    0.00
 idx2           90     0.00     0.00     0.00     0.00    0.00
 idx34           6     0.00     0.00     0.00     0.00    0.00
 ht2pm           6     0.00     0.00     0.00     0.00    0.00
 itm             6     0.00     0.00     0.00     0.00    0.00
 pdiis           6     0.00     0.00     0.00     0.00    0.00
 r_read         75     0.00     0.00     0.00     0.00    0.00
 Total                 0.07     0.07     0.07     0.07    0.00
 step    -1 energy         -75.01911148
            gradient         0.000613
                                 NWChem SCF Module
                                 -----------------


                              H2O : STO-3G ccsd freq



  ao basis        = "ao basis"
  functions       =     7
  atoms           =     3
  closed shells   =     5
  open shells     =     0
  charge          =   0.00
  wavefunction    = RHF 
  input vectors   = ./h2o_freq.movecs
  output vectors  = ./h2o_freq.movecs
  use symmetry    = F
  symmetry adapt  = F


 Forming initial guess at       0.8s


 Starting SCF solution at       0.8s



       Final RHF  results 
       ------------------ 

         Total SCF energy =    -74.961169031057
      One-electron energy =   -121.660215941685
      Two-electron energy =     37.858144058057
 Nuclear repulsion energy =      8.840902852571

        Time for solution =      0.0s




                   Four-Index Transformation
                   -------------------------
          Number of basis functions:              7
          Number of shells:                       5
          Number of occupied orbitals:            5
          Number of occ. correlated orbitals:     5
          Block length:                          16
          Superscript MO index range:      1 -    5
          Subscript MO index range:        1 -    7
          MO coefficients read from:  ./h2o_freq.movecs        
          Number of operator matrices in core:   30
          Half-transformed integrals produced

     Pass:    1     Index range:    1  -    5     Time:      0.01


 ****************************************************************************
              the segmented parallel ccsd program:    1 nodes
 ****************************************************************************




 level of theory    ccsd
 number of core         0
 number of occupied     5
 number of virtual      2
 number of deleted      0
 total functions        7
 number of shells       5
 basis label          566



   ***** ccsd parameters *****
   iprt   =     0
   convi  = 0.100E-05
   maxit  =    20
   mxvec  =     5
 memory             26213340
  Restarting from old vector in ./h2o_freq.t2


-------------------------------------------------------------------------
 iter     correlation     delta       rms       T2     Non-T2      Main
             energy      energy      error      ampl     ampl      Block
                                                time     time      time
-------------------------------------------------------------------------
   1     -0.0579670749 -5.797D-02  6.694D-06     0.01     0.00     0.01
   2     -0.0579673707 -2.958D-07  1.934D-06     0.00     0.00     0.00
   3     -0.0579674927 -1.220D-07  5.158D-07     0.00     0.00     0.00
                  *************converged*************
-------------------------------------------------------------------------

 -----------
 CCSD Energy
 -----------
 Reference energy:             -74.961169031057196
 CCSD corr. energy:             -0.057967492696500
 Total CCSD energy:            -75.019136523753701

 routine      calls  cpu(0)   cpu-min  cpu-ave  cpu-max   i/o 
 aoccsd          1     0.00     0.00     0.00     0.00    0.00
 iterdrv         1     0.05     0.05     0.05     0.05    0.00
 pampt           3     0.00     0.00     0.00     0.00    0.00
 t2pm            3     0.00     0.00     0.00     0.00    0.00
 sxy             3     0.00     0.00     0.00     0.00    0.00
 ints          225     0.01     0.01     0.01     0.01    0.00
 f_write        30     0.00     0.00     0.00     0.00    0.00
 t2eri          45     0.00     0.00     0.00     0.00    0.00
 idx2           45     0.00     0.00     0.00     0.00    0.00
 idx34           3     0.00     0.00     0.00     0.00    0.00
 ht2pm           3     0.00     0.00     0.00     0.00    0.00
 itm             3     0.00     0.00     0.00     0.00    0.00
 pdiis           3     0.00     0.00     0.00     0.00    0.00
 r_read         30     0.00     0.00     0.00     0.00    0.00
 Total                 0.06     0.06     0.06     0.06    0.00
 step     2 energy         -75.01913652
                                 NWChem SCF Module
                                 -----------------


                              H2O : STO-3G ccsd freq



  ao basis        = "ao basis"
  functions       =     7
  atoms           =     3
  closed shells   =     5
  open shells     =     0
  charge          =   0.00
  wavefunction    = RHF 
  input vectors   = ./h2o_freq.movecs
  output vectors  = ./h2o_freq.movecs
  use symmetry    = F
  symmetry adapt  = F


 Forming initial guess at       0.9s


 Starting SCF solution at       0.9s



       Final RHF  results 
       ------------------ 

         Total SCF energy =    -74.961169031057
      One-electron energy =   -121.660215941685
      Two-electron energy =     37.858144058057
 Nuclear repulsion energy =      8.840902852571

        Time for solution =      0.0s




                   Four-Index Transformation
                   -------------------------
          Number of basis functions:              7
          Number of shells:                       5
          Number of occupied orbitals:            5
          Number of occ. correlated orbitals:     5
          Block length:                          16
          Superscript MO index range:      1 -    5
          Subscript MO index range:        1 -    7
          MO coefficients read from:  ./h2o_freq.movecs        
          Number of operator matrices in core:   30
          Half-transformed integrals produced

     Pass:    1     Index range:    1  -    5     Time:      0.01


 ****************************************************************************
              the segmented parallel ccsd program:    1 nodes
 ****************************************************************************




 level of theory    ccsd
 number of core         0
 number of occupied     5
 number of virtual      2
 number of deleted      0
 total functions        7
 number of shells       5
 basis label          566



   ***** ccsd parameters *****
   iprt   =     0
   convi  = 0.100E-05
   maxit  =    20
   mxvec  =     5
 memory             26213340
  Restarting from old vector in ./h2o_freq.t2


-------------------------------------------------------------------------
 iter     correlation     delta       rms       T2     Non-T2      Main
             energy      energy      error      ampl     ampl      Block
                                                time     time      time
-------------------------------------------------------------------------
   1     -0.0579670749 -5.797D-02  6.701D-06     0.01     0.00     0.01
   2     -0.0579673707 -2.958D-07  1.939D-06     0.00     0.00     0.00
   3     -0.0579674927 -1.220D-07  5.180D-07     0.00     0.00     0.00
                  *************converged*************
-------------------------------------------------------------------------

 -----------
 CCSD Energy
 -----------
 Reference energy:             -74.961169031057139
 CCSD corr. energy:             -0.057967492696500
 Total CCSD energy:            -75.019136523753644

 routine      calls  cpu(0)   cpu-min  cpu-ave  cpu-max   i/o 
 aoccsd          1     0.00     0.00     0.00     0.00    0.00
 iterdrv         1     0.05     0.05     0.05     0.05    0.00
 pampt           3     0.00     0.00     0.00     0.00    0.00
 t2pm            3     0.00     0.00     0.00     0.00    0.00
 sxy             3     0.00     0.00     0.00     0.00    0.00
 ints          225     0.01     0.01     0.01     0.01    0.00
 f_write        30     0.00     0.00     0.00     0.00    0.00
 t2eri          45     0.00     0.00     0.00     0.00    0.00
 idx2           45     0.00     0.00     0.00     0.00    0.00
 idx34           3     0.00     0.00     0.00     0.00    0.00
 ht2pm           3     0.00     0.00     0.00     0.00    0.00
 itm             3     0.00     0.00     0.00     0.00    0.00
 pdiis           3     0.00     0.00     0.00     0.00    0.00
 r_read         30     0.00     0.00     0.00     0.00    0.00
 Total                 0.06     0.06     0.06     0.06    0.00
 step    -2 energy         -75.01913652
            gradient         0.000000
                                 NWChem SCF Module
                                 -----------------


                              H2O : STO-3G ccsd freq



  ao basis        = "ao basis"
  functions       =     7
  atoms           =     3
  closed shells   =     5
  open shells     =     0
  charge          =   0.00
  wavefunction    = RHF 
  input vectors   = ./h2o_freq.movecs
  output vectors  = ./h2o_freq.movecs
  use symmetry    = F
  symmetry adapt  = F


 Forming initial guess at       1.1s


 Starting SCF solution at       1.1s



       Final RHF  results 
       ------------------ 

         Total SCF energy =    -74.960664510894
      One-electron energy =   -121.602036826194
      Two-electron energy =     37.831973059158
 Nuclear repulsion energy =      8.809399256143

        Time for solution =      0.0s




                   Four-Index Transformation
                   -------------------------
          Number of basis functions:              7
          Number of shells:                       5
          Number of occupied orbitals:            5
          Number of occ. correlated orbitals:     5
          Block length:                          16
          Superscript MO index range:      1 -    5
          Subscript MO index range:        1 -    7
          MO coefficients read from:  ./h2o_freq.movecs        
          Number of operator matrices in core:   30
          Half-transformed integrals produced

     Pass:    1     Index range:    1  -    5     Time:      0.01


 ****************************************************************************
              the segmented parallel ccsd program:    1 nodes
 ****************************************************************************




 level of theory    ccsd
 number of core         0
 number of occupied     5
 number of virtual      2
 number of deleted      0
 total functions        7
 number of shells       5
 basis label          566



   ***** ccsd parameters *****
   iprt   =     0
   convi  = 0.100E-05
   maxit  =    20
   mxvec  =     5
 memory             26213340
  Restarting from old vector in ./h2o_freq.t2


-------------------------------------------------------------------------
 iter     correlation     delta       rms       T2     Non-T2      Main
             energy      energy      error      ampl     ampl      Block
                                                time     time      time
-------------------------------------------------------------------------
   1     -0.0584715577 -5.847D-02  1.758D-03     0.01     0.00     0.01
   2     -0.0585511958 -7.964D-05  5.080D-04     0.00     0.00     0.00
   3     -0.0585841048 -3.291D-05  1.352D-04     0.00     0.00     0.00
   4     -0.0585947854 -1.068D-05  6.039D-06     0.00     0.00     0.00
   5     -0.0585955095 -7.241D-07  3.025D-06     0.00     0.00     0.00
   6     -0.0585953716  1.379D-07  2.597D-07     0.00     0.00     0.00
                  *************converged*************
-------------------------------------------------------------------------

 -----------
 CCSD Energy
 -----------
 Reference energy:             -74.960664510893977
 CCSD corr. energy:             -0.058595371591798
 Total CCSD energy:            -75.019259882485770

 routine      calls  cpu(0)   cpu-min  cpu-ave  cpu-max   i/o 
 aoccsd          1     0.00     0.00     0.00     0.00    0.00
 iterdrv         1     0.05     0.05     0.05     0.05    0.00
 pampt           6     0.00     0.00     0.00     0.00    0.00
 t2pm            6     0.00     0.00     0.00     0.00    0.00
 sxy             6     0.00     0.00     0.00     0.00    0.00
 ints          225     0.01     0.01     0.01     0.01    0.00
 f_write        30     0.00     0.00     0.00     0.00    0.00
 t2eri          90     0.00     0.00     0.00     0.00    0.00
 idx2           90     0.00     0.00     0.00     0.00    0.00
 idx34           6     0.00     0.00     0.00     0.00    0.00
 ht2pm           6     0.00     0.00     0.00     0.00    0.00
 itm             6     0.00     0.00     0.00     0.00    0.00
 pdiis           6     0.00     0.00     0.00     0.00    0.00
 r_read         75     0.00     0.00     0.00     0.00    0.00
 Total                 0.07     0.07     0.07     0.07    0.00
 step     3 energy         -75.01925988
                                 NWChem SCF Module
                                 -----------------


                              H2O : STO-3G ccsd freq



  ao basis        = "ao basis"
  functions       =     7
  atoms           =     3
  closed shells   =     5
  open shells     =     0
  charge          =   0.00
  wavefunction    = RHF 
  input vectors   = ./h2o_freq.movecs
  output vectors  = ./h2o_freq.movecs
  use symmetry    = F
  symmetry adapt  = F


 Forming initial guess at       1.2s


 Starting SCF solution at       1.2s



       Final RHF  results 
       ------------------ 

         Total SCF energy =    -74.961610820245
      One-electron energy =   -121.718975558602
      Two-electron energy =     37.884602655724
 Nuclear repulsion energy =      8.872762082633

        Time for solution =      0.0s




                   Four-Index Transformation
                   -------------------------
          Number of basis functions:              7
          Number of shells:                       5
          Number of occupied orbitals:            5
          Number of occ. correlated orbitals:     5
          Block length:                          16
          Superscript MO index range:      1 -    5
          Subscript MO index range:        1 -    7
          MO coefficients read from:  ./h2o_freq.movecs        
          Number of operator matrices in core:   30
          Half-transformed integrals produced

     Pass:    1     Index range:    1  -    5     Time:      0.01


 ****************************************************************************
              the segmented parallel ccsd program:    1 nodes
 ****************************************************************************




 level of theory    ccsd
 number of core         0
 number of occupied     5
 number of virtual      2
 number of deleted      0
 total functions        7
 number of shells       5
 basis label          566



   ***** ccsd parameters *****
   iprt   =     0
   convi  = 0.100E-05
   maxit  =    20
   mxvec  =     5
 memory             26213340
  Restarting from old vector in ./h2o_freq.t2


-------------------------------------------------------------------------
 iter     correlation     delta       rms       T2     Non-T2      Main
             energy      energy      error      ampl     ampl      Block
                                                time     time      time
-------------------------------------------------------------------------
   1     -0.0574630432 -5.746D-02  1.746D-03     0.01     0.00     0.01
   2     -0.0573845545  7.849D-05  4.997D-04     0.00     0.00     0.00
   3     -0.0573522705  3.228D-05  1.325D-04     0.00     0.00     0.00
   4     -0.0573418310  1.044D-05  6.673D-06     0.00     0.00     0.00
   5     -0.0573411671  6.639D-07  2.870D-06     0.00     0.00     0.00
   6     -0.0573413017 -1.346D-07  2.449D-07     0.00     0.00     0.00
                  *************converged*************
-------------------------------------------------------------------------

 -----------
 CCSD Energy
 -----------
 Reference energy:             -74.961610820245326
 CCSD corr. energy:             -0.057341301723045
 Total CCSD energy:            -75.018952121968368

 routine      calls  cpu(0)   cpu-min  cpu-ave  cpu-max   i/o 
 aoccsd          1     0.00     0.00     0.00     0.00    0.00
 iterdrv         1     0.06     0.06     0.06     0.06    0.00
 pampt           6     0.00     0.00     0.00     0.00    0.00
 t2pm            6     0.00     0.00     0.00     0.00    0.00
 sxy             6     0.00     0.00     0.00     0.00    0.00
 ints          225     0.01     0.01     0.01     0.01    0.00
 f_write        30     0.00     0.00     0.00     0.00    0.00
 t2eri          90     0.00     0.00     0.00     0.00    0.00
 idx2           90     0.00     0.00     0.00     0.00    0.00
 idx34           6     0.00     0.00     0.00     0.00    0.00
 ht2pm           6     0.00     0.00     0.00     0.00    0.00
 itm             6     0.00     0.00     0.00     0.00    0.00
 pdiis           6     0.00     0.00     0.00     0.00    0.00
 r_read         75     0.00     0.00     0.00     0.00    0.00
 Total                 0.08     0.08     0.08     0.08    0.00
 step    -3 energy         -75.01895212
            gradient        -0.015388


                         CCSD ENERGY GRADIENTS

    atom               coordinates                        gradient
                 x          y          z           x          y          z
   1 O       0.001000   0.000000   0.267248    0.000613   0.000000  -0.015388
   2 H       1.336238   0.000000  -1.068990    0.000000   0.000000   0.000000
   3 H      -1.336238   0.000000  -1.068990    0.000000   0.000000   0.000000


 atom:   1 xyz: 1(-) wall time:       1.4      date:  Mon May  6 06:39:14 2013

                         NWChem Numerical Gradients Module
                         ---------------------------------


 No. of totally-symmetric internal modes =   3

                                 NWChem SCF Module
                                 -----------------


                              H2O : STO-3G ccsd freq



  ao basis        = "ao basis"
  functions       =     7
  atoms           =     3
  closed shells   =     5
  open shells     =     0
  charge          =   0.00
  wavefunction    = RHF 
  input vectors   = ./h2o_freq.movecs
  output vectors  = ./h2o_freq.movecs
  use symmetry    = F
  symmetry adapt  = F


 Forming initial guess at       1.4s


 Starting SCF solution at       1.4s



       Final RHF  results 
       ------------------ 

         Total SCF energy =    -74.961170802505
      One-electron energy =   -121.660434703595
      Two-electron energy =     37.858242503140
 Nuclear repulsion energy =      8.841021397951

        Time for solution =      0.0s




                   Four-Index Transformation
                   -------------------------
          Number of basis functions:              7
          Number of shells:                       5
          Number of occupied orbitals:            5
          Number of occ. correlated orbitals:     5
          Block length:                          16
          Superscript MO index range:      1 -    5
          Subscript MO index range:        1 -    7
          MO coefficients read from:  ./h2o_freq.movecs        
          Number of operator matrices in core:   30
          Half-transformed integrals produced

     Pass:    1     Index range:    1  -    5     Time:      0.01


 ****************************************************************************
              the segmented parallel ccsd program:    1 nodes
 ****************************************************************************




 level of theory    ccsd
 number of core         0
 number of occupied     5
 number of virtual      2
 number of deleted      0
 total functions        7
 number of shells       5
 basis label          566



   ***** ccsd parameters *****
   iprt   =     0
   convi  = 0.100E-05
   maxit  =    20
   mxvec  =     5
 memory             26213340
  Restarting from old vector in ./h2o_freq.t2


-------------------------------------------------------------------------
 iter     correlation     delta       rms       T2     Non-T2      Main
             energy      energy      error      ampl     ampl      Block
                                                time     time      time
-------------------------------------------------------------------------
   1     -0.0579648381 -5.796D-02  4.279D-04     0.01     0.00     0.01
   2     -0.0579650582 -2.202D-07  1.690D-04     0.00     0.00     0.00
   3     -0.0579651722 -1.140D-07  2.289D-05     0.00     0.00     0.00
   4     -0.0579651853 -1.311D-08  3.800D-06     0.00     0.00     0.00
   5     -0.0579651885 -3.190D-09  4.044D-07     0.00     0.00     0.00
                  *************converged*************
-------------------------------------------------------------------------

 -----------
 CCSD Energy
 -----------
 Reference energy:             -74.961170802504540
 CCSD corr. energy:             -0.057965188486848
 Total CCSD energy:            -75.019135990991387

 routine      calls  cpu(0)   cpu-min  cpu-ave  cpu-max   i/o 
 aoccsd          1     0.00     0.00     0.00     0.00    0.00
 iterdrv         1     0.05     0.05     0.05     0.05    0.00
 pampt           5     0.00     0.00     0.00     0.00    0.00
 t2pm            5     0.00     0.00     0.00     0.00    0.00
 sxy             5     0.00     0.00     0.00     0.00    0.00
 ints          225     0.01     0.01     0.01     0.01    0.00
 f_write        30     0.00     0.00     0.00     0.00    0.00
 t2eri          75     0.00     0.00     0.00     0.00    0.00
 idx2           75     0.00     0.00     0.00     0.00    0.00
 idx34           5     0.00     0.00     0.00     0.00    0.00
 ht2pm           5     0.00     0.00     0.00     0.00    0.00
 itm             5     0.00     0.00     0.00     0.00    0.00
 pdiis           5     0.00     0.00     0.00     0.00    0.00
 r_read         60     0.00     0.00     0.00     0.00    0.00
 Total                 0.07     0.07     0.07     0.07    0.00
 Reference energy         -75.01913599

 Finite difference step  1.00000D-02
 Use five point formula F

                                 NWChem SCF Module
                                 -----------------


                              H2O : STO-3G ccsd freq



  ao basis        = "ao basis"
  functions       =     7
  atoms           =     3
  closed shells   =     5
  open shells     =     0
  charge          =   0.00
  wavefunction    = RHF 
  input vectors   = ./h2o_freq.movecs
  output vectors  = ./h2o_freq.movecs
  use symmetry    = F
  symmetry adapt  = F


 Forming initial guess at       1.5s


 Starting SCF solution at       1.5s



       Final RHF  results 
       ------------------ 

         Total SCF energy =    -74.961143853847
      One-electron energy =   -121.660456844619
      Two-electron energy =     37.858244175472
 Nuclear repulsion energy =      8.841068815300

        Time for solution =      0.0s




                   Four-Index Transformation
                   -------------------------
          Number of basis functions:              7
          Number of shells:                       5
          Number of occupied orbitals:            5
          Number of occ. correlated orbitals:     5
          Block length:                          16
          Superscript MO index range:      1 -    5
          Subscript MO index range:        1 -    7
          MO coefficients read from:  ./h2o_freq.movecs        
          Number of operator matrices in core:   30
          Half-transformed integrals produced

     Pass:    1     Index range:    1  -    5     Time:      0.01


 ****************************************************************************
              the segmented parallel ccsd program:    1 nodes
 ****************************************************************************




 level of theory    ccsd
 number of core         0
 number of occupied     5
 number of virtual      2
 number of deleted      0
 total functions        7
 number of shells       5
 basis label          566



   ***** ccsd parameters *****
   iprt   =     0
   convi  = 0.100E-05
   maxit  =    20
   mxvec  =     5
 memory             26213340
  Restarting from old vector in ./h2o_freq.t2


-------------------------------------------------------------------------
 iter     correlation     delta       rms       T2     Non-T2      Main
             energy      energy      error      ampl     ampl      Block
                                                time     time      time
-------------------------------------------------------------------------
   1     -0.0579327399 -5.793D-02  4.375D-03     0.01     0.00     0.01
   2     -0.0579547153 -2.198D-05  1.673D-03     0.00     0.00     0.00
   3     -0.0579660300 -1.131D-05  2.357D-04     0.00     0.00     0.00
   4     -0.0579673127 -1.283D-06  3.986D-05     0.00     0.00     0.00
   5     -0.0579676224 -3.097D-07  4.446D-06     0.00     0.00     0.00
   6     -0.0579676300 -7.562D-09  7.979D-07     0.00     0.00     0.00
                  *************converged*************
-------------------------------------------------------------------------

 -----------
 CCSD Energy
 -----------
 Reference energy:             -74.961143853847346
 CCSD corr. energy:             -0.057967629962410
 Total CCSD energy:            -75.019111483809752

 routine      calls  cpu(0)   cpu-min  cpu-ave  cpu-max   i/o 
 aoccsd          1     0.00     0.00     0.00     0.00    0.00
 iterdrv         1     0.05     0.05     0.05     0.05    0.00
 pampt           6     0.00     0.00     0.00     0.00    0.00
 t2pm            6     0.00     0.00     0.00     0.00    0.00
 sxy             6     0.00     0.00     0.00     0.00    0.00
 ints          225     0.01     0.01     0.01     0.01    0.00
 f_write        30     0.00     0.00     0.00     0.00    0.00
 t2eri          90     0.00     0.00     0.00     0.00    0.00
 idx2           90     0.00     0.00     0.00     0.00    0.00
 idx34           6     0.00     0.00     0.00     0.00    0.00
 ht2pm           6     0.00     0.00     0.00     0.00    0.00
 itm             6     0.00     0.00     0.00     0.00    0.00
 pdiis           6     0.00     0.00     0.00     0.00    0.00
 r_read         75     0.00     0.00     0.00     0.00    0.00
 Total                 0.07     0.07     0.07     0.07    0.00
 step     1 energy         -75.01911148
                                 NWChem SCF Module
                                 -----------------


                              H2O : STO-3G ccsd freq



  ao basis        = "ao basis"
  functions       =     7
  atoms           =     3
  closed shells   =     5
  open shells     =     0
  charge          =   0.00
  wavefunction    = RHF 
  input vectors   = ./h2o_freq.movecs
  output vectors  = ./h2o_freq.movecs
  use symmetry    = F
  symmetry adapt  = F


 Forming initial guess at       1.7s


 Starting SCF solution at       1.7s



       Final RHF  results 
       ------------------ 

         Total SCF energy =    -74.961130379762
      One-electron energy =   -121.660467911615
      Two-electron energy =     37.858245009174
 Nuclear repulsion energy =      8.841092522679

        Time for solution =      0.0s




                   Four-Index Transformation
                   -------------------------
          Number of basis functions:              7
          Number of shells:                       5
          Number of occupied orbitals:            5
          Number of occ. correlated orbitals:     5
          Block length:                          16
          Superscript MO index range:      1 -    5
          Subscript MO index range:        1 -    7
          MO coefficients read from:  ./h2o_freq.movecs        
          Number of operator matrices in core:   30
          Half-transformed integrals produced

     Pass:    1     Index range:    1  -    5     Time:      0.01


 ****************************************************************************
              the segmented parallel ccsd program:    1 nodes
 ****************************************************************************




 level of theory    ccsd
 number of core         0
 number of occupied     5
 number of virtual      2
 number of deleted      0
 total functions        7
 number of shells       5
 basis label          566



   ***** ccsd parameters *****
   iprt   =     0
   convi  = 0.100E-05
   maxit  =    20
   mxvec  =     5
 memory             26213340
  Restarting from old vector in ./h2o_freq.t2


-------------------------------------------------------------------------
 iter     correlation     delta       rms       T2     Non-T2      Main
             energy      energy      error      ampl     ampl      Block
                                                time     time      time
-------------------------------------------------------------------------
   1     -0.0579338460 -5.793D-02  4.155D-03     0.01     0.00     0.01
   2     -0.0579558225 -2.198D-05  1.685D-03     0.00     0.00     0.00
   3     -0.0579672037 -1.138D-05  2.224D-04     0.00     0.00     0.00
   4     -0.0579685223 -1.319D-06  3.746D-05     0.00     0.00     0.00
   5     -0.0579688412 -3.189D-07  3.820D-06     0.00     0.00     0.00
   6     -0.0579688482 -6.960D-09  5.819D-07     0.00     0.00     0.00
                  *************converged*************
-------------------------------------------------------------------------

 -----------
 CCSD Energy
 -----------
 Reference energy:             -74.961130379761983
 CCSD corr. energy:             -0.057968848185177
 Total CCSD energy:            -75.019099227947166

 routine      calls  cpu(0)   cpu-min  cpu-ave  cpu-max   i/o 
 aoccsd          1     0.00     0.00     0.00     0.00    0.00
 iterdrv         1     0.05     0.05     0.05     0.05    0.00
 pampt           6     0.00     0.00     0.00     0.00    0.00
 t2pm            6     0.00     0.00     0.00     0.00    0.00
 sxy             6     0.00     0.00     0.00     0.00    0.00
 ints          225     0.01     0.01     0.01     0.01    0.00
 f_write        30     0.00     0.00     0.00     0.00    0.00
 t2eri          90     0.00     0.00     0.00     0.00    0.00
 idx2           90     0.00     0.00     0.00     0.00    0.00
 idx34           6     0.00     0.00     0.00     0.00    0.00
 ht2pm           6     0.00     0.00     0.00     0.00    0.00
 itm             6     0.00     0.00     0.00     0.00    0.00
 pdiis           6     0.00     0.00     0.00     0.00    0.00
 r_read         75     0.00     0.00     0.00     0.00    0.00
 Total                 0.07     0.07     0.07     0.07    0.00
 step    -1 energy         -75.01909923
            gradient        -0.000613
                                 NWChem SCF Module
                                 -----------------


                              H2O : STO-3G ccsd freq



  ao basis        = "ao basis"
  functions       =     7
  atoms           =     3
  closed shells   =     5
  open shells     =     0
  charge          =   0.00
  wavefunction    = RHF 
  input vectors   = ./h2o_freq.movecs
  output vectors  = ./h2o_freq.movecs
  use symmetry    = F
  symmetry adapt  = F


 Forming initial guess at       1.8s


 Starting SCF solution at       1.8s



       Final RHF  results 
       ------------------ 

         Total SCF energy =    -74.961169031057
      One-electron energy =   -121.660215941685
      Two-electron energy =     37.858144058057
 Nuclear repulsion energy =      8.840902852571

        Time for solution =      0.0s




                   Four-Index Transformation
                   -------------------------
          Number of basis functions:              7
          Number of shells:                       5
          Number of occupied orbitals:            5
          Number of occ. correlated orbitals:     5
          Block length:                          16
          Superscript MO index range:      1 -    5
          Subscript MO index range:        1 -    7
          MO coefficients read from:  ./h2o_freq.movecs        
          Number of operator matrices in core:   30
          Half-transformed integrals produced

     Pass:    1     Index range:    1  -    5     Time:      0.01


 ****************************************************************************
              the segmented parallel ccsd program:    1 nodes
 ****************************************************************************




 level of theory    ccsd
 number of core         0
 number of occupied     5
 number of virtual      2
 number of deleted      0
 total functions        7
 number of shells       5
 basis label          566



   ***** ccsd parameters *****
   iprt   =     0
   convi  = 0.100E-05
   maxit  =    20
   mxvec  =     5
 memory             26213340
  Restarting from old vector in ./h2o_freq.t2


-------------------------------------------------------------------------
 iter     correlation     delta       rms       T2     Non-T2      Main
             energy      energy      error      ampl     ampl      Block
                                                time     time      time
-------------------------------------------------------------------------
   1     -0.0579670749 -5.797D-02  6.377D-06     0.01     0.00     0.01
   2     -0.0579673707 -2.958D-07  1.829D-06     0.00     0.00     0.00
   3     -0.0579674927 -1.220D-07  4.865D-07     0.00     0.00     0.00
                  *************converged*************
-------------------------------------------------------------------------

 -----------
 CCSD Energy
 -----------
 Reference energy:             -74.961169031057167
 CCSD corr. energy:             -0.057967492696500
 Total CCSD energy:            -75.019136523753673

 routine      calls  cpu(0)   cpu-min  cpu-ave  cpu-max   i/o 
 aoccsd          1     0.00     0.00     0.00     0.00    0.00
 iterdrv         1     0.05     0.05     0.05     0.05    0.00
 pampt           3     0.00     0.00     0.00     0.00    0.00
 t2pm            3     0.00     0.00     0.00     0.00    0.00
 sxy             3     0.00     0.00     0.00     0.00    0.00
 ints          225     0.01     0.01     0.01     0.01    0.00
 f_write        30     0.00     0.00     0.00     0.00    0.00
 t2eri          45     0.00     0.00     0.00     0.00    0.00
 idx2           45     0.00     0.00     0.00     0.00    0.00
 idx34           3     0.00     0.00     0.00     0.00    0.00
 ht2pm           3     0.00     0.00     0.00     0.00    0.00
 itm             3     0.00     0.00     0.00     0.00    0.00
 pdiis           3     0.00     0.00     0.00     0.00    0.00
 r_read         30     0.00     0.00     0.00     0.00    0.00
 Total                 0.06     0.06     0.06     0.06    0.00
 step     2 energy         -75.01913652
                                 NWChem SCF Module
                                 -----------------


                              H2O : STO-3G ccsd freq



  ao basis        = "ao basis"
  functions       =     7
  atoms           =     3
  closed shells   =     5
  open shells     =     0
  charge          =   0.00
  wavefunction    = RHF 
  input vectors   = ./h2o_freq.movecs
  output vectors  = ./h2o_freq.movecs
  use symmetry    = F
  symmetry adapt  = F


 Forming initial guess at       2.0s


 Starting SCF solution at       2.0s



       Final RHF  results 
       ------------------ 

         Total SCF energy =    -74.961169031057
      One-electron energy =   -121.660215941685
      Two-electron energy =     37.858144058057
 Nuclear repulsion energy =      8.840902852571

        Time for solution =      0.0s




                   Four-Index Transformation
                   -------------------------
          Number of basis functions:              7
          Number of shells:                       5
          Number of occupied orbitals:            5
          Number of occ. correlated orbitals:     5
          Block length:                          16
          Superscript MO index range:      1 -    5
          Subscript MO index range:        1 -    7
          MO coefficients read from:  ./h2o_freq.movecs        
          Number of operator matrices in core:   30
          Half-transformed integrals produced

     Pass:    1     Index range:    1  -    5     Time:      0.01


 ****************************************************************************
              the segmented parallel ccsd program:    1 nodes
 ****************************************************************************




 level of theory    ccsd
 number of core         0
 number of occupied     5
 number of virtual      2
 number of deleted      0
 total functions        7
 number of shells       5
 basis label          566



   ***** ccsd parameters *****
   iprt   =     0
   convi  = 0.100E-05
   maxit  =    20
   mxvec  =     5
 memory             26213340
  Restarting from old vector in ./h2o_freq.t2


-------------------------------------------------------------------------
 iter     correlation     delta       rms       T2     Non-T2      Main
             energy      energy      error      ampl     ampl      Block
                                                time     time      time
-------------------------------------------------------------------------
   1     -0.0579670749 -5.797D-02  6.371D-06     0.01     0.00     0.01
   2     -0.0579673707 -2.958D-07  1.825D-06     0.00     0.00     0.00
   3     -0.0579674927 -1.220D-07  4.846D-07     0.00     0.00     0.00
                  *************converged*************
-------------------------------------------------------------------------

 -----------
 CCSD Energy
 -----------
 Reference energy:             -74.961169031057196
 CCSD corr. energy:             -0.057967492696499
 Total CCSD energy:            -75.019136523753701

 routine      calls  cpu(0)   cpu-min  cpu-ave  cpu-max   i/o 
 aoccsd          1     0.00     0.00     0.00     0.00    0.00
 iterdrv         1     0.05     0.05     0.05     0.05    0.00
 pampt           3     0.00     0.00     0.00     0.00    0.00
 t2pm            3     0.00     0.00     0.00     0.00    0.00
 sxy             3     0.00     0.00     0.00     0.00    0.00
 ints          225     0.01     0.01     0.01     0.01    0.00
 f_write        30     0.00     0.00     0.00     0.00    0.00
 t2eri          45     0.00     0.00     0.00     0.00    0.00
 idx2           45     0.00     0.00     0.00     0.00    0.00
 idx34           3     0.00     0.00     0.00     0.00    0.00
 ht2pm           3     0.00     0.00     0.00     0.00    0.00
 itm             3     0.00     0.00     0.00     0.00    0.00
 pdiis           3     0.00     0.00     0.00     0.00    0.00
 r_read         30     0.00     0.00     0.00     0.00    0.00
 Total                 0.06     0.06     0.06     0.06    0.00
 step    -2 energy         -75.01913652
            gradient         0.000000
                                 NWChem SCF Module
                                 -----------------


                              H2O : STO-3G ccsd freq



  ao basis        = "ao basis"
  functions       =     7
  atoms           =     3
  closed shells   =     5
  open shells     =     0
  charge          =   0.00
  wavefunction    = RHF 
  input vectors   = ./h2o_freq.movecs
  output vectors  = ./h2o_freq.movecs
  use symmetry    = F
  symmetry adapt  = F


 Forming initial guess at       2.1s


 Starting SCF solution at       2.1s



       Final RHF  results 
       ------------------ 

         Total SCF energy =    -74.960664510894
      One-electron energy =   -121.602036826194
      Two-electron energy =     37.831973059158
 Nuclear repulsion energy =      8.809399256143

        Time for solution =      0.0s




                   Four-Index Transformation
                   -------------------------
          Number of basis functions:              7
          Number of shells:                       5
          Number of occupied orbitals:            5
          Number of occ. correlated orbitals:     5
          Block length:                          16
          Superscript MO index range:      1 -    5
          Subscript MO index range:        1 -    7
          MO coefficients read from:  ./h2o_freq.movecs        
          Number of operator matrices in core:   30
          Half-transformed integrals produced

     Pass:    1     Index range:    1  -    5     Time:      0.01


 ****************************************************************************
              the segmented parallel ccsd program:    1 nodes
 ****************************************************************************




 level of theory    ccsd
 number of core         0
 number of occupied     5
 number of virtual      2
 number of deleted      0
 total functions        7
 number of shells       5
 basis label          566



   ***** ccsd parameters *****
   iprt   =     0
   convi  = 0.100E-05
   maxit  =    20
   mxvec  =     5
 memory             26213340
  Restarting from old vector in ./h2o_freq.t2


-------------------------------------------------------------------------
 iter     correlation     delta       rms       T2     Non-T2      Main
             energy      energy      error      ampl     ampl      Block
                                                time     time      time
-------------------------------------------------------------------------
   1     -0.0584715577 -5.847D-02  1.748D-03     0.01     0.00     0.01
   2     -0.0585511958 -7.964D-05  5.064D-04     0.00     0.00     0.00
   3     -0.0585841048 -3.291D-05  1.358D-04     0.00     0.00     0.00
   4     -0.0585947854 -1.068D-05  5.129D-06     0.00     0.00     0.00
   5     -0.0585955095 -7.241D-07  3.036D-06     0.00     0.00     0.00
   6     -0.0585953716  1.379D-07  2.563D-07     0.00     0.00     0.00
                  *************converged*************
-------------------------------------------------------------------------

 -----------
 CCSD Energy
 -----------
 Reference energy:             -74.960664510893977
 CCSD corr. energy:             -0.058595371591798
 Total CCSD energy:            -75.019259882485770

 routine      calls  cpu(0)   cpu-min  cpu-ave  cpu-max   i/o 
 aoccsd          1     0.00     0.00     0.00     0.00    0.00
 iterdrv         1     0.05     0.05     0.05     0.05    0.00
 pampt           6     0.00     0.00     0.00     0.00    0.00
 t2pm            6     0.00     0.00     0.00     0.00    0.00
 sxy             6     0.00     0.00     0.00     0.00    0.00
 ints          225     0.01     0.01     0.01     0.01    0.00
 f_write        30     0.00     0.00     0.00     0.00    0.00
 t2eri          90     0.00     0.00     0.00     0.00    0.00
 idx2           90     0.00     0.00     0.00     0.00    0.00
 idx34           6     0.00     0.00     0.00     0.00    0.00
 ht2pm           6     0.00     0.00     0.00     0.00    0.00
 itm             6     0.00     0.00     0.00     0.00    0.00
 pdiis           6     0.00     0.00     0.00     0.00    0.00
 r_read         75     0.00     0.00     0.00     0.00    0.00
 Total                 0.07     0.07     0.07     0.07    0.00
 step     3 energy         -75.01925988
                                 NWChem SCF Module
                                 -----------------


                              H2O : STO-3G ccsd freq



  ao basis        = "ao basis"
  functions       =     7
  atoms           =     3
  closed shells   =     5
  open shells     =     0
  charge          =   0.00
  wavefunction    = RHF 
  input vectors   = ./h2o_freq.movecs
  output vectors  = ./h2o_freq.movecs
  use symmetry    = F
  symmetry adapt  = F


 Forming initial guess at       2.3s


 Starting SCF solution at       2.3s



       Final RHF  results 
       ------------------ 

         Total SCF energy =    -74.961610820245
      One-electron energy =   -121.718975558602
      Two-electron energy =     37.884602655724
 Nuclear repulsion energy =      8.872762082633

        Time for solution =      0.0s




                   Four-Index Transformation
                   -------------------------
          Number of basis functions:              7
          Number of shells:                       5
          Number of occupied orbitals:            5
          Number of occ. correlated orbitals:     5
          Block length:                          16
          Superscript MO index range:      1 -    5
          Subscript MO index range:        1 -    7
          MO coefficients read from:  ./h2o_freq.movecs        
          Number of operator matrices in core:   30
          Half-transformed integrals produced

     Pass:    1     Index range:    1  -    5     Time:      0.01


 ****************************************************************************
              the segmented parallel ccsd program:    1 nodes
 ****************************************************************************




 level of theory    ccsd
 number of core         0
 number of occupied     5
 number of virtual      2
 number of deleted      0
 total functions        7
 number of shells       5
 basis label          566



   ***** ccsd parameters *****
   iprt   =     0
   convi  = 0.100E-05
   maxit  =    20
   mxvec  =     5
 memory             26213340
  Restarting from old vector in ./h2o_freq.t2


-------------------------------------------------------------------------
 iter     correlation     delta       rms       T2     Non-T2      Main
             energy      energy      error      ampl     ampl      Block
                                                time     time      time
-------------------------------------------------------------------------
   1     -0.0574630432 -5.746D-02  1.737D-03     0.01     0.00     0.01
   2     -0.0573845545  7.849D-05  4.984D-04     0.00     0.00     0.00
   3     -0.0573522705  3.228D-05  1.331D-04     0.00     0.00     0.00
   4     -0.0573418310  1.044D-05  5.877D-06     0.00     0.00     0.00
   5     -0.0573411671  6.639D-07  2.880D-06     0.00     0.00     0.00
   6     -0.0573413017 -1.346D-07  2.411D-07     0.00     0.00     0.00
                  *************converged*************
-------------------------------------------------------------------------

 -----------
 CCSD Energy
 -----------
 Reference energy:             -74.961610820245298
 CCSD corr. energy:             -0.057341301723045
 Total CCSD energy:            -75.018952121968340

 routine      calls  cpu(0)   cpu-min  cpu-ave  cpu-max   i/o 
 aoccsd          1     0.00     0.00     0.00     0.00    0.00
 iterdrv         1     0.05     0.05     0.05     0.05    0.00
 pampt           6     0.00     0.00     0.00     0.00    0.00
 t2pm            6     0.00     0.00     0.00     0.00    0.00
 sxy             6     0.00     0.00     0.00     0.00    0.00
 ints          225     0.01     0.01     0.01     0.01    0.00
 f_write        30     0.00     0.00     0.00     0.00    0.00
 t2eri          90     0.00     0.00     0.00     0.00    0.00
 idx2           90     0.00     0.00     0.00     0.00    0.00
[...]



  ao basis        = "ao basis"
  functions       =     7
  atoms           =     3
  closed shells   =     5
  open shells     =     0
  charge          =   0.00
  wavefunction    = RHF 
  input vectors   = ./h2o_freq.movecs
  output vectors  = ./h2o_freq.movecs
  use symmetry    = F
  symmetry adapt  = F


 Forming initial guess at      13.0s


 Starting SCF solution at      13.0s



       Final RHF  results 
       ------------------ 

         Total SCF energy =    -74.960656842607
      One-electron energy =   -121.649176621551
      Two-electron energy =     37.852385028108
 Nuclear repulsion energy =      8.836134750837

        Time for solution =      0.0s




                   Four-Index Transformation
                   -------------------------
          Number of basis functions:              7
          Number of shells:                       5
          Number of occupied orbitals:            5
          Number of occ. correlated orbitals:     5
          Block length:                          16
          Superscript MO index range:      1 -    5
          Subscript MO index range:        1 -    7
          MO coefficients read from:  ./h2o_freq.movecs        
          Number of operator matrices in core:   30
          Half-transformed integrals produced

     Pass:    1     Index range:    1  -    5     Time:      0.01


 ****************************************************************************
              the segmented parallel ccsd program:    1 nodes
 ****************************************************************************




 level of theory    ccsd
 number of core         0
 number of occupied     5
 number of virtual      2
 number of deleted      0
 total functions        7
 number of shells       5
 basis label          566



   ***** ccsd parameters *****
   iprt   =     0
   convi  = 0.100E-05
   maxit  =    20
   mxvec  =     5
 memory             26213340
  Restarting from old vector in ./h2o_freq.t2


-------------------------------------------------------------------------
 iter     correlation     delta       rms       T2     Non-T2      Main
             energy      energy      error      ampl     ampl      Block
                                                time     time      time
-------------------------------------------------------------------------
   1     -0.0581438543 -5.814D-02  3.426D-03     0.01     0.00     0.01
   2     -0.0581736393 -2.978D-05  1.277D-03     0.00     0.00     0.00
   3     -0.0581869758 -1.334D-05  1.621D-04     0.00     0.00     0.00
   4     -0.0581880411 -1.065D-06  2.036D-05     0.00     0.00     0.00
   5     -0.0581883719 -3.308D-07  1.166D-06     0.00     0.00     0.00
   6     -0.0581884197 -4.779D-08  6.683D-07     0.00     0.00     0.00
                  *************converged*************
-------------------------------------------------------------------------

 -----------
 CCSD Energy
 -----------
 Reference energy:             -74.960656842606511
 CCSD corr. energy:             -0.058188419722211
 Total CCSD energy:            -75.018845262328725

 routine      calls  cpu(0)   cpu-min  cpu-ave  cpu-max   i/o 
 aoccsd          1     0.00     0.00     0.00     0.00    0.00
 iterdrv         1     0.05     0.05     0.05     0.05    0.00
 pampt           6     0.00     0.00     0.00     0.00    0.00
 t2pm            6     0.00     0.00     0.00     0.00    0.00
 sxy             6     0.00     0.00     0.00     0.00    0.00
 ints          225     0.01     0.01     0.01     0.01    0.00
 f_write        30     0.00     0.00     0.00     0.00    0.00
 t2eri          90     0.00     0.00     0.00     0.00    0.00
 idx2           90     0.00     0.00     0.00     0.00    0.00
 idx34           6     0.00     0.00     0.00     0.00    0.00
 ht2pm           6     0.00     0.00     0.00     0.00    0.00
 itm             6     0.00     0.00     0.00     0.00    0.00
 pdiis           6     0.00     0.00     0.00     0.00    0.00
 r_read         75     0.00     0.00     0.00     0.00    0.00
 Total                 0.07     0.07     0.07     0.07    0.00
 step     3 energy         -75.01884526
                                 NWChem SCF Module
                                 -----------------


                              H2O : STO-3G ccsd freq



  ao basis        = "ao basis"
  functions       =     7
  atoms           =     3
  closed shells   =     5
  open shells     =     0
  charge          =   0.00
  wavefunction    = RHF 
  input vectors   = ./h2o_freq.movecs
  output vectors  = ./h2o_freq.movecs
  use symmetry    = F
  symmetry adapt  = F


 Forming initial guess at      13.1s


 Starting SCF solution at      13.1s



       Final RHF  results 
       ------------------ 

         Total SCF energy =    -74.961580719201
      One-electron energy =   -121.665750711968
      Two-electron energy =     37.861458548527
 Nuclear repulsion energy =      8.842711444239

        Time for solution =      0.0s




                   Four-Index Transformation
                   -------------------------
          Number of basis functions:              7
          Number of shells:                       5
          Number of occupied orbitals:            5
          Number of occ. correlated orbitals:     5
          Block length:                          16
          Superscript MO index range:      1 -    5
          Subscript MO index range:        1 -    7
          MO coefficients read from:  ./h2o_freq.movecs        
          Number of operator matrices in core:   30
          Half-transformed integrals produced

     Pass:    1     Index range:    1  -    5     Time:      0.01


 ****************************************************************************
              the segmented parallel ccsd program:    1 nodes
 ****************************************************************************




 level of theory    ccsd
 number of core         0
 number of occupied     5
 number of virtual      2
 number of deleted      0
 total functions        7
 number of shells       5
 basis label          566



   ***** ccsd parameters *****
   iprt   =     0
   convi  = 0.100E-05
   maxit  =    20
   mxvec  =     5
 memory             26213340
  Restarting from old vector in ./h2o_freq.t2


-------------------------------------------------------------------------
 iter     correlation     delta       rms       T2     Non-T2      Main
             energy      energy      error      ampl     ampl      Block
                                                time     time      time
-------------------------------------------------------------------------
   1     -0.0578181170 -5.782D-02  3.401D-03     0.01     0.00     0.01
   2     -0.0578113912  6.726D-06  1.232D-03     0.00     0.00     0.00
   3     -0.0578099098  1.481D-06  1.655D-04     0.00     0.00     0.00
   4     -0.0578102116 -3.018D-07  2.173D-05     0.00     0.00     0.00
   5     -0.0578102045  7.055D-09  1.654D-06     0.00     0.00     0.00
   6     -0.0578101637  4.084D-08  4.252D-07     0.00     0.00     0.00
                  *************converged*************
-------------------------------------------------------------------------

 -----------
 CCSD Energy
 -----------
 Reference energy:             -74.961580719201152
 CCSD corr. energy:             -0.057810163684725
 Total CCSD energy:            -75.019390882885872

 routine      calls  cpu(0)   cpu-min  cpu-ave  cpu-max   i/o 
 aoccsd          1     0.00     0.00     0.00     0.00    0.00
 iterdrv         1     0.06     0.06     0.06     0.06    0.00
 pampt           6     0.00     0.00     0.00     0.00    0.00
 t2pm            6     0.00     0.00     0.00     0.00    0.00
 sxy             6     0.00     0.00     0.00     0.00    0.00
 ints          225     0.01     0.01     0.01     0.01    0.00
 f_write        30     0.00     0.00     0.00     0.00    0.00
 t2eri          90     0.00     0.00     0.00     0.00    0.00
 idx2           90     0.00     0.00     0.00     0.00    0.00
 idx34           6     0.00     0.00     0.00     0.00    0.00
 ht2pm           6     0.00     0.00     0.00     0.00    0.00
 itm             6     0.00     0.00     0.00     0.00    0.00
 pdiis           6     0.00     0.00     0.00     0.00    0.00
 r_read         75     0.00     0.00     0.00     0.00    0.00
 Total                 0.07     0.07     0.07     0.07    0.00
 step    -3 energy         -75.01939088
            gradient         0.027281


                         CCSD ENERGY GRADIENTS

    atom               coordinates                        gradient
                 x          y          z           x          y          z
   1 O       0.000000   0.000000   0.267248    0.000319   0.000000  -0.015119
   2 H       1.336238   0.000000  -1.068990   -0.038211   0.000000   0.007705
   3 H      -1.336238   0.000000  -1.069990    0.037892   0.000000   0.007414


  
  finite difference hessian delta =   1.000000000000000E-003

              1        2        3        4        5        6        7        8
    1    0.6128   0.0000   0.0000  -0.3064   0.0000   0.3122  -0.3064   0.0000
    2    0.0000  -0.0107   0.0000   0.0000   0.0058   0.0000   0.0000   0.0058
    3    0.0000   0.0000   0.5998   0.1987   0.0000  -0.2999  -0.1987   0.0000
    4   -0.3064   0.0000   0.1987   0.3679   0.0000  -0.2554  -0.0615   0.0000
    5    0.0000   0.0058   0.0000   0.0000  -0.0172   0.0000   0.0000   0.0114
    6    0.3122   0.0000  -0.2999  -0.2554   0.0000   0.2918  -0.0568   0.0000
    7   -0.3064   0.0000  -0.1987  -0.0615   0.0000  -0.0568   0.3679   0.0000
    8    0.0000   0.0058   0.0000   0.0000   0.0114   0.0000   0.0000  -0.0172
    9   -0.3122   0.0000  -0.2999   0.0568   0.0000   0.0082   0.2554   0.0000

              9      
    1   -0.3122
    3   -0.2999
    4    0.0568
    6    0.0082
    7    0.2554
    9    0.2918
  
  triangle hessian written to ./h2o_freq.hess

 Deleting state for ccsd with suffix hess
        ./h2o_freq.movecs



  Vibrational analysis via the FX method 

  See chapter 2 in "Molecular Vibrations" by Wilson, Decius and Cross

  Vib: Default input used 

  Nuclear Hessian passed symmetry test 



 ---------------------------- Atom information ----------------------------
     atom    #        X              Y              Z            mass
 --------------------------------------------------------------------------
    O        1  0.0000000D+00  0.0000000D+00  2.6724761D-01  1.5994910D+01
    H        2  1.3362381D+00  0.0000000D+00 -1.0689904D+00  1.0078250D+00
    H        3 -1.3362381D+00  0.0000000D+00 -1.0689904D+00  1.0078250D+00
 --------------------------------------------------------------------------




          ----------------------------------------------------
          MASS-WEIGHTED NUCLEAR HESSIAN (Hartree/Bohr/Bohr/Kamu)
          ----------------------------------------------------


              1           2           3           4           5           6           7           8           9
   ----- ----- ----- ----- -----
    1   3.83118D+01
    2   0.00000D+00-6.65953D-01
    3   0.00000D+00 0.00000D+00 3.74976D+01
    4  -7.63202D+01 0.00000D+00 4.94957D+01 3.65055D+02
    5   0.00000D+00 1.43622D+00 0.00000D+00 0.00000D+00-1.70240D+01
    6   7.77501D+01 0.00000D+00-7.47016D+01-2.53439D+02 0.00000D+00 2.89506D+02
    7  -7.63202D+01 0.00000D+00-4.94957D+01-6.10099D+01 0.00000D+00-5.63152D+01 3.65055D+02
    8   0.00000D+00 1.43622D+00 0.00000D+00 0.00000D+00 1.13023D+01 0.00000D+00 0.00000D+00-1.70240D+01
    9  -7.77501D+01 0.00000D+00-7.47016D+01 5.63152D+01 0.00000D+00 8.09090D+00 2.53439D+02 0.00000D+00 2.89506D+02



          -------------------------------------------------
          NORMAL MODE EIGENVECTORS IN CARTESIAN COORDINATES
          -------------------------------------------------
                 (Frequencies expressed in cm-1)

                    1           2           3           4           5           6
 
 Frequency       -865.17     -693.74     -412.41      -10.85       -8.99       35.97
 
           1     0.00000    -0.05632     0.00000     0.00000     0.23564     0.00000
           2     0.00000     0.00000    -0.08302     0.00000     0.00000     0.23586
           3     0.00000     0.00000     0.00000    -0.23564     0.00000     0.00000
           4     0.00000     0.44720     0.00000     0.00005     0.23557     0.00000
           5     0.70436     0.00000     0.66440     0.00000     0.00000     0.23386
           6     0.00000     0.52054     0.00000    -0.23560    -0.00007     0.00000
           7     0.00000     0.44720     0.00000    -0.00005     0.23557     0.00000
           8    -0.70436     0.00000     0.66440     0.00000     0.00000     0.23386
           9     0.00000    -0.52054     0.00000    -0.23560     0.00007     0.00000

                    7           8           9
 
 Frequency       2097.62     3964.02     4118.77
 
           1     0.00000     0.00000     0.06182
           2     0.00000     0.00000     0.00000
           3    -0.06511     0.05250     0.00000
           4     0.44199     0.54842    -0.49055
           5     0.00000     0.00000     0.00000
           6     0.51684    -0.41652     0.47451
           7    -0.44199    -0.54842    -0.49055
           8     0.00000     0.00000     0.00000
           9     0.51684    -0.41652    -0.47451


        Vibrational analysis via the FX method 
  --- with translations and rotations projected out ---
  --- via the Eckart algorithm                      ---
 Projected Nuclear Hessian trans-rot subspace norm:5.0074D-33
                         (should be close to zero!) 


From the projected analysis 
The Zero-Point Energy (Kcal/mol) =          14.58489246

 center of mass
 --------------
 x =   0.00000000 y =   0.00000000 z =   0.11770266

 moments of inertia (a.u.)
 ------------------
           3.196225286295           0.000000000000           0.000000000000
           0.000000000000           6.795233176450           0.000000000000
           0.000000000000           0.000000000000           3.599007890155

 Rotational Constants
 --------------------
 A=  18.834772 cm-1  ( 27.098430 K)
 B=  16.726881 cm-1  ( 24.065712 K)
 C=   8.859177 cm-1  ( 12.746095 K)


 Temperature                      =   298.15K
 frequency scaling parameter      =   1.0000

 Zero-Point correction to Energy  =   14.574 kcal/mol  (  0.023224 au)
 Thermal correction to Energy     =   16.350 kcal/mol  (  0.026056 au)
 Thermal correction to Enthalpy   =   16.943 kcal/mol  (  0.027000 au)

 Total Entropy                    =   45.345 cal/mol-K
   - Translational                =   34.593 cal/mol-K (mol. weight =  18.0106)
   - Rotational                   =   10.752 cal/mol-K (symmetry #  =        2)
   - Vibrational                  =    0.001 cal/mol-K

 Cv (constant volume heat capacity) =    5.967 cal/mol-K
   - Translational                  =    2.979 cal/mol-K
   - Rotational                     =    2.979 cal/mol-K
   - Vibrational                    =    0.008 cal/mol-K



          -------------------------------------------------
          NORMAL MODE EIGENVECTORS IN CARTESIAN COORDINATES
          -------------------------------------------------
             (Projected Frequencies expressed in cm-1)

                    1           2           3           4           5           6
 
 P.Frequency        0.00        0.00        0.00        0.00        0.00        0.00
 
           1    -0.05385     0.00702     0.00000     0.00000     0.00000    -0.23636
           2     0.00000     0.00000     0.25004     0.00000     0.00000     0.00000
           3    -0.03043    -0.23366     0.00000     0.00000     0.00000    -0.00001
           4     0.45441    -0.05918     0.00000     0.00000     0.00000    -0.22971
           5     0.00000     0.00000     0.00000     0.99611     0.00000     0.00000
           6     0.47783    -0.29986     0.00000     0.00000     0.00000     0.00664
           7     0.45441    -0.05918     0.00000     0.00000     0.00000    -0.22971
           8     0.00000     0.00000     0.00000     0.00000     0.99611     0.00000
           9    -0.53870    -0.16746     0.00000     0.00000     0.00000    -0.00665

                    7           8           9
 
 P.Frequency     2097.33     3964.11     4137.79
 
           1     0.00000     0.00000    -0.06088
           2     0.00000     0.00000     0.00000
           3    -0.06513     0.05249     0.00000
           4     0.44199     0.54842     0.48307
           5     0.00000     0.00000     0.00000
           6     0.51682    -0.41652    -0.48307
           7    -0.44199    -0.54842     0.48307
           8     0.00000     0.00000     0.00000
           9     0.51682    -0.41652     0.48307
 vib:animation  F

 Task  times  cpu:        4.0s     wall:       13.2s
 Summary of allocated global arrays
-----------------------------------
  No active global arrays



                         GA Statistics for process    0
                         ------------------------------

       create   destroy   get      put      acc     scatter   gather  read&inc
calls: 1.86e+04 1.86e+04 5.61e+05 3.00e+05 2.47e+05    0        0        0     
number of processes/call 1.00e+00 1.00e+00 1.00e+00 0.00e+00 0.00e+00
bytes total:             1.34e+08 4.66e+07 3.82e+07 0.00e+00 0.00e+00 0.00e+00
bytes remote:            0.00e+00 0.00e+00 0.00e+00 0.00e+00 0.00e+00 0.00e+00
Max memory consumed for GA by this process: 67992 bytes
MA_summarize_allocated_blocks: starting scan ...
MA_summarize_allocated_blocks: scan completed: 0 heap blocks, 0 stack blocks
MA usage statistics:

	allocation statistics:
					      heap	     stack
					      ----	     -----
	current number of blocks	         0	         0
	maximum number of blocks	        18	        36
	current total bytes		         0	         0
	maximum total bytes		   1053744	 209709448
	maximum total K-bytes		      1054	    209710
	maximum total M-bytes		         2	       210


                                NWChem Input Module
                                -------------------





                                     CITATION
                                     --------
                Please cite the following reference when publishing
                           results obtained with NWChem:

                 M. Valiev, E.J. Bylaska, N. Govind, K. Kowalski,
              T.P. Straatsma, H.J.J. van Dam, D. Wang, J. Nieplocha,
                        E. Apra, T.L. Windus, W.A. de Jong
                 "NWChem: a comprehensive and scalable open-source
                  solution for large scale molecular simulations"
                      Comput. Phys. Commun. 181, 1477 (2010)
                           doi:10.1016/j.cpc.2010.04.018

                              AUTHORS & CONTRIBUTORS
                              ----------------------
      E. J. Bylaska, W. A. de Jong, N. Govind, K. Kowalski, T. P. Straatsma,
     M. Valiev, H. J. J. van Dam, D. Wang, E. Apra, T. L. Windus, J. Hammond,
     J. Autschbach, P. Nichols, S. Hirata, M. T. Hackler, Y. Zhao, P.-D. Fan,
      R. J. Harrison, M. Dupuis, D. M. A. Smith, K. Glaesemann, J. Nieplocha,
      V. Tipparaju, M. Krishnan, A. Vazquez-Mayagoitia, L. Jensen, M. Swart,
      Q. Wu, T. Van Voorhis, A. A. Auer, M. Nooijen, L. D. Crosby, E. Brown,
             G. Cisneros, G. I. Fann, H. Fruchtl, J. Garza, K. Hirao,
        R. Kendall, J. A. Nichols, K. Tsemekhman, K. Wolinski, J. Anchell,
       D. Bernholdt, P. Borowski, T. Clark, D. Clerc, H. Dachsel, M. Deegan,
        K. Dyall, D. Elwood, E. Glendening, M. Gutowski, A. Hess, J. Jaffe,
        B. Johnson, J. Ju, R. Kobayashi, R. Kutteh, Z. Lin, R. Littlefield,
    X. Long, B. Meng, T. Nakajima, S. Niu, L. Pollack, M. Rosing, G. Sandrone,
       M. Stave, H. Taylor, G. Thomas, J. H. van Lenthe, A. Wong, Z. Zhang.

 Total times  cpu:        4.0s     wall:       13.4s
