6
Frame 19: Geometry 12, Energy: -1.01750 Ha
C 0.01810772515730644 -0.03639875293686625 0.01222993076866093
H 0.01966453156793152 -0.03978848125546387 1.101579151018107
H 1.026958287881871 -0.04113243593513814 -0.3981197198206235
H -0.594355626278725 -0.8378625662874909 -0.3987578340650439
H -0.4602498290178655 0.9373067426483945 -0.3094776681889987
H -0.9864391769218018 2.00334239695261 -0.6633403274229278
