total 12
drwxrwxr-x 2 henon henon 4096 14 avril 13:06 .
drwxrwxr-x 3 henon henon 4096 14 avril 13:06 ..
-rw-r--r-- 1 henon henon  270 14 avril 13:06 for2.inp
-rw-rw-r-- 1 henon henon    0 14 avril 13:06 for2.out
 Entering Gaussian System, Link 0=g09
 Initial command:
 /home/projets/algogen/g09.D01/g09/l1.exe "/scratch_l/henon/for2_8989/Gau-9007.inp" -scrdir="/scratch_l/henon/for2_8989/"
 Entering Link 1 = /home/projets/algogen/g09.D01/g09/l1.exe PID=      9008.
  
 Copyright (c) 1988,1990,1992,1993,1995,1998,2003,2009,2013,
            Gaussian, Inc.  All Rights Reserved.
  
 This is part of the Gaussian(R) 09 program.  It is based on
 the Gaussian(R) 03 system (copyright 2003, Gaussian, Inc.),
 the Gaussian(R) 98 system (copyright 1998, Gaussian, Inc.),
 the Gaussian(R) 94 system (copyright 1995, Gaussian, Inc.),
 the Gaussian 92(TM) system (copyright 1992, Gaussian, Inc.),
 the Gaussian 90(TM) system (copyright 1990, Gaussian, Inc.),
 the Gaussian 88(TM) system (copyright 1988, Gaussian, Inc.),
 the Gaussian 86(TM) system (copyright 1986, Carnegie Mellon
 University), and the Gaussian 82(TM) system (copyright 1983,
 Carnegie Mellon University). Gaussian is a federally registered
 trademark of Gaussian, Inc.
  
 This software contains proprietary and confidential information,
 including trade secrets, belonging to Gaussian, Inc.
  
 This software is provided under written license and may be
 used, copied, transmitted, or stored only in accord with that
 written license.
  
 The following legend is applicable only to US Government
 contracts under FAR:
  
                    RESTRICTED RIGHTS LEGEND
  
 Use, reproduction and disclosure by the US Government is
 subject to restrictions as set forth in subparagraphs (a)
 and (c) of the Commercial Computer Software - Restricted
 Rights clause in FAR 52.227-19.
  
 Gaussian, Inc.
 340 Quinnipiac St., Bldg. 40, Wallingford CT 06492
  
  
 ---------------------------------------------------------------
 Warning -- This program may not be used in any manner that
 competes with the business of Gaussian, Inc. or will provide
 assistance to any competitor of Gaussian, Inc.  The licensee
 of this program is prohibited from giving any competitor of
 Gaussian, Inc. access to this program.  By using this program,
 the user acknowledges that Gaussian, Inc. is engaged in the
 business of creating and licensing software in the field of
 computational chemistry and represents and warrants to the
 licensee that it is not a competitor of Gaussian, Inc. and that
 it will not use this program in any manner prohibited above.
 ---------------------------------------------------------------
  

 Cite this work as:
 Gaussian 09, Revision D.01,
 M. J. Frisch, G. W. Trucks, H. B. Schlegel, G. E. Scuseria, 
 M. A. Robb, J. R. Cheeseman, G. Scalmani, V. Barone, B. Mennucci, 
 G. A. Petersson, H. Nakatsuji, M. Caricato, X. Li, H. P. Hratchian, 
 A. F. Izmaylov, J. Bloino, G. Zheng, J. L. Sonnenberg, M. Hada, 
 M. Ehara, K. Toyota, R. Fukuda, J. Hasegawa, M. Ishida, T. Nakajima, 
 Y. Honda, O. Kitao, H. Nakai, T. Vreven, J. A. Montgomery, Jr., 
 J. E. Peralta, F. Ogliaro, M. Bearpark, J. J. Heyd, E. Brothers, 
 K. N. Kudin, V. N. Staroverov, T. Keith, R. Kobayashi, J. Normand, 
 K. Raghavachari, A. Rendell, J. C. Burant, S. S. Iyengar, J. Tomasi, 
 M. Cossi, N. Rega, J. M. Millam, M. Klene, J. E. Knox, J. B. Cross, 
 V. Bakken, C. Adamo, J. Jaramillo, R. Gomperts, R. E. Stratmann, 
 O. Yazyev, A. J. Austin, R. Cammi, C. Pomelli, J. W. Ochterski, 
 R. L. Martin, K. Morokuma, V. G. Zakrzewski, G. A. Voth, 
 P. Salvador, J. J. Dannenberg, S. Dapprich, A. D. Daniels, 
 O. Farkas, J. B. Foresman, J. V. Ortiz, J. Cioslowski, 
 and D. J. Fox, Gaussian, Inc., Wallingford CT, 2013.
 
 ******************************************
 Gaussian 09:  ES64L-G09RevD.01 24-Apr-2013
                14-Apr-2016 
 ******************************************
 %NPROC=1
 Will use up to    1 processors via shared memory.
 %MEM=800MB
 ----------------------------------------------------
 #P B3LYP 6-311G** FREQ # POP=full GFINPUT IOP(6/7=3)
 ----------------------------------------------------
 1/10=4,30=1,38=1/1,3;
 2/12=2,17=6,18=5,40=1/2;
 3/5=4,6=6,7=101,11=2,16=1,24=10,25=1,30=1,71=2,74=-5,140=1/1,2,3;
 4//1;
 5/5=2,38=5,98=1/2;
 8/6=4,10=90,11=11/1;
 11/6=1,8=1,9=11,15=111,16=1/1,2,10;
 10/6=1/2;
 6/7=3,18=1,28=1/1;
 7/8=1,10=1,25=1/1,2,3,16;
 1/10=4,30=1/3;
 99//99;
 Leave Link    1 at Thu Apr 14 13:06:36 2016, MaxMem=   104857600 cpu:         0.0
 (Enter /home/projets/algogen/g09.D01/g09/l101.exe)
 ---------------
 point 2 forward
 ---------------
 Symbolic Z-matrix:
 Charge =  0 Multiplicity = 1
 6                    -0.04664   0.       -0.63111 
 7                    -0.03771   0.        0.55462 
 1                     1.07926   0.       -0.19156 
 
 NAtoms=      3 NQM=        3 NQMF=       0 NMMI=      0 NMMIF=      0
                NMic=       0 NMicF=      0.
                    Isotopes and Nuclear Properties:
 (Nuclear quadrupole moments (NQMom) in fm**2, nuclear magnetic moments (NMagM)
  in nuclear magnetons)

  Atom         1           2           3
 IAtWgt=          12          14           1
 AtmWgt=  12.0000000  14.0030740   1.0078250
 NucSpn=           0           2           1
 AtZEff=   0.0000000   0.0000000   0.0000000
 NQMom=    0.0000000   2.0440000   0.0000000
 NMagM=    0.0000000   0.4037610   2.7928460
 AtZNuc=   6.0000000   7.0000000   1.0000000
 Leave Link  101 at Thu Apr 14 13:06:36 2016, MaxMem=   104857600 cpu:         0.1
 (Enter /home/projets/algogen/g09.D01/g09/l103.exe)

 GradGradGradGradGradGradGradGradGradGradGradGradGradGradGradGradGradGrad
 Berny optimization.
 Initialization pass.
 Trust Radius=3.00D-01 FncErr=1.00D-07 GrdErr=1.00D-07
 Number of steps in this run=      2 maximum allowed number of steps=      2.
 GradGradGradGradGradGradGradGradGradGradGradGradGradGradGradGradGradGrad

 Leave Link  103 at Thu Apr 14 13:06:36 2016, MaxMem=   104857600 cpu:         0.0
 (Enter /home/projets/algogen/g09.D01/g09/l202.exe)
                          Input orientation:                          
 ---------------------------------------------------------------------
 Center     Atomic      Atomic             Coordinates (Angstroms)
 Number     Number       Type             X           Y           Z
 ---------------------------------------------------------------------
      1          6           0       -0.046642    0.000000   -0.631106
      2          7           0       -0.037706    0.000000    0.554616
      3          1           0        1.079257    0.000000   -0.191556
 ---------------------------------------------------------------------
                    Distance matrix (angstroms):
                    1          2          3
     1  C    0.000000
     2  N    1.185756   0.000000
     3  H    1.208657   1.343272   0.000000
 Stoichiometry    CHN
 Framework group  CS[SG(CHN)]
 Deg. of freedom     3
 Full point group                 CS      NOp   2
 Largest Abelian subgroup         CS      NOp   2
 Largest concise Abelian subgroup C1      NOp   1
                         Standard orientation:                         
 ---------------------------------------------------------------------
 Center     Atomic      Atomic             Coordinates (Angstroms)
 Number     Number       Type             X           Y           Z
 ---------------------------------------------------------------------
      1          6           0        0.080182    0.624879    0.000000
      2          7           0        0.080182   -0.560876    0.000000
      3          1           0       -1.042372    0.176857    0.000000
 ---------------------------------------------------------------------
 Rotational constants (GHZ):    415.2130478     55.3741859     48.8582836
 Leave Link  202 at Thu Apr 14 13:06:36 2016, MaxMem=   104857600 cpu:         0.0
 (Enter /home/projets/algogen/g09.D01/g09/l301.exe)
 Standard basis: 6-311G(d,p) (5D, 7F)
 Ernie: Thresh=  0.10000D-02 Tol=  0.10000D-05 Strict=F.
 AO basis set in the form of general basis input (Overlap normalization):
      1 0
 S   6 1.00       0.000000000000
      0.4563240000D+04  0.1966650249D-02
      0.6820240000D+03  0.1523060193D-01
      0.1549730000D+03  0.7612690966D-01
      0.4445530000D+02  0.2608010331D+00
      0.1302900000D+02  0.6164620782D+00
      0.1827730000D+01  0.2210060280D+00
 SP   3 1.00       0.000000000000
      0.2096420000D+02  0.1146600807D+00  0.4024869267D-01
      0.4803310000D+01  0.9199996477D+00  0.2375939567D+00
      0.1459330000D+01 -0.3030682134D-02  0.8158538515D+00
 SP   1 1.00       0.000000000000
      0.4834560000D+00  0.1000000000D+01  0.1000000000D+01
 SP   1 1.00       0.000000000000
      0.1455850000D+00  0.1000000000D+01  0.1000000000D+01
 D   1 1.00       0.000000000000
      0.6260000000D+00  0.1000000000D+01
 ****
      2 0
 S   6 1.00       0.000000000000
      0.6293480000D+04  0.1969788147D-02
      0.9490440000D+03  0.1496128592D-01
      0.2187760000D+03  0.7350053084D-01
      0.6369160000D+02  0.2489367658D+00
      0.1882820000D+02  0.6024594331D+00
      0.2720230000D+01  0.2562017589D+00
 SP   3 1.00       0.000000000000
      0.3063310000D+02  0.1119060795D+00  0.3831191864D-01
      0.7026140000D+01  0.9216666549D+00  0.2374031155D+00
      0.2112050000D+01 -0.2569191826D-02  0.8175923978D+00
 SP   1 1.00       0.000000000000
      0.6840090000D+00  0.1000000000D+01  0.1000000000D+01
 SP   1 1.00       0.000000000000
      0.2008780000D+00  0.1000000000D+01  0.1000000000D+01
 D   1 1.00       0.000000000000
      0.9130000000D+00  0.1000000000D+01
 ****
      3 0
 S   3 1.00       0.000000000000
      0.3386500000D+02  0.2549381454D-01
      0.5094790000D+01  0.1903731086D+00
      0.1158790000D+01  0.8521614860D+00
 S   1 1.00       0.000000000000
      0.3258400000D+00  0.1000000000D+01
 S   1 1.00       0.000000000000
      0.1027410000D+00  0.1000000000D+01
 P   1 1.00       0.000000000000
      0.7500000000D+00  0.1000000000D+01
 ****

 There are    33 symmetry adapted cartesian basis functions of A'  symmetry.
 There are    11 symmetry adapted cartesian basis functions of A"  symmetry.
 There are    31 symmetry adapted basis functions of A'  symmetry.
 There are    11 symmetry adapted basis functions of A"  symmetry.
    42 basis functions,    72 primitive gaussians,    44 cartesian basis functions
     7 alpha electrons        7 beta electrons
       nuclear repulsion energy        24.1282545884 Hartrees.
 IExCor=  402 DFT=T Ex+Corr=B3LYP ExCW=0 ScaHFX=  0.200000
 ScaDFX=  0.800000  0.720000  1.000000  0.810000 ScalE2=  1.000000  1.000000
 IRadAn=      0 IRanWt=     -1 IRanGd=            0 ICorTp=0 IEmpDi=  4
 NAtoms=    3 NActive=    3 NUniq=    3 SFac= 1.00D+00 NAtFMM=   60 NAOKFM=F Big=F
 Integral buffers will be    131072 words long.
 Raffenetti 2 integral format.
 Two-electron integral symmetry is turned on.
 Leave Link  301 at Thu Apr 14 13:06:36 2016, MaxMem=   104857600 cpu:         0.0
 (Enter /home/projets/algogen/g09.D01/g09/l302.exe)
 NPDir=0 NMtPBC=     1 NCelOv=     1 NCel=       1 NClECP=     1 NCelD=      1
         NCelK=      1 NCelE2=     1 NClLst=     1 CellRange=     0.0.
 One-electron integrals computed using PRISM.
 NBasis=    42 RedAO= T EigKep=  8.69D-03  NBF=    31    11
 NBsUse=    42 1.00D-06 EigRej= -1.00D+00 NBFU=    31    11
 Precomputing XC quadrature grid using
 IXCGrd= 4 IRadAn=           0 IRanWt=          -1 IRanGd=           0 AccXCQ= 0.00D+00.
 Generated NRdTot=       0 NPtTot=           0 NUsed=           0 NTot=          32
 NSgBfM=    44    44    44    44    44 MxSgAt=     3 MxSgA2=     3.
 Leave Link  302 at Thu Apr 14 13:06:36 2016, MaxMem=   104857600 cpu:         0.1
 (Enter /home/projets/algogen/g09.D01/g09/l303.exe)
 DipDrv:  MaxL=1.
 Leave Link  303 at Thu Apr 14 13:06:36 2016, MaxMem=   104857600 cpu:         0.0
 (Enter /home/projets/algogen/g09.D01/g09/l401.exe)
 ExpMin= 1.03D-01 ExpMax= 6.29D+03 ExpMxC= 9.49D+02 IAcc=1 IRadAn=         1 AccDes= 0.00D+00
 Harris functional with IExCor=  402 and IRadAn=       1 diagonalized for initial guess.
 HarFok:  IExCor=  402 AccDes= 0.00D+00 IRadAn=         1 IDoV= 1 UseB2=F ITyADJ=14
 ICtDFT=  3500011 ScaDFX=  1.000000  1.000000  1.000000  1.000000
 FoFCou: FMM=F IPFlag=           0 FMFlag=      100000 FMFlg1=           0
         NFxFlg=           0 DoJE=T BraDBF=F KetDBF=T FulRan=T
         wScrn=  0.000000 ICntrl=     500 IOpCl=  0 I1Cent=   200000004 NGrid=           0
         NMat0=    1 NMatS0=      1 NMatT0=    0 NMatD0=    1 NMtDS0=    0 NMtDT0=    0
 Petite list used in FoFCou.
 Harris En= -93.3709013446715    
 JPrj=0 DoOrth=F DoCkMO=F.
 Initial guess orbital symmetries:
       Occupied  (A') (A') (A') (A') (A') (A") (A')
       Virtual   (A') (A") (A') (A') (A') (A") (A') (A') (A') (A')
                 (A") (A') (A") (A') (A') (A") (A') (A') (A") (A')
                 (A") (A') (A') (A') (A") (A') (A") (A') (A') (A')
                 (A") (A') (A') (A') (A')
 The electronic state of the initial guess is 1-A'.
 Leave Link  401 at Thu Apr 14 13:06:37 2016, MaxMem=   104857600 cpu:         0.1
 (Enter /home/projets/algogen/g09.D01/g09/l502.exe)
 Closed shell SCF:
 Using DIIS extrapolation, IDIIS=  1040.
 Integral symmetry usage will be decided dynamically.
 Keep R1 ints in memory in symmetry-blocked form, NReq=1300126.
 IVT=       24966 IEndB=       24966 NGot=   104857600 MDV=   104613769
 LenX=   104613769 LenY=   104611392
 Requested convergence on RMS density matrix=1.00D-08 within 128 cycles.
 Requested convergence on MAX density matrix=1.00D-06.
 Requested convergence on             energy=1.00D-06.
 No special actions if energy rises.
 FoFCou: FMM=F IPFlag=           0 FMFlag=           0 FMFlg1=           0
         NFxFlg=           0 DoJE=F BraDBF=F KetDBF=F FulRan=T
         wScrn=  0.000000 ICntrl=     600 IOpCl=  0 I1Cent=           0 NGrid=           0
         NMat0=    1 NMatS0=    903 NMatT0=    0 NMatD0=    1 NMtDS0=    0 NMtDT0=    0
 Petite list used in FoFCou.
 Integral accuracy reduced to 1.0D-05 until final iterations.

 Cycle   1  Pass 0  IDiag  1:
 E= -93.3490155007253    
 DIIS: error= 2.91D-02 at cycle   1 NSaved=   1.
 NSaved= 1 IEnMin= 1 EnMin= -93.3490155007253     IErMin= 1 ErrMin= 2.91D-02
 ErrMax= 2.91D-02  0.00D+00 EMaxC= 1.00D-01 BMatC= 3.13D-02 BMatP= 3.13D-02
 IDIUse=3 WtCom= 7.09D-01 WtEn= 2.91D-01
 Coeff-Com:  0.100D+01
 Coeff-En:   0.100D+01
 Coeff:      0.100D+01
 Gap=     0.282 Goal=   None    Shift=    0.000
 GapD=    0.282 DampG=1.000 DampE=0.500 DampFc=0.5000 IDamp=-1.
 Damping current iteration by 5.00D-01
 RMSDP=5.88D-03 MaxDP=8.79D-02              OVMax= 1.12D-01

 Cycle   2  Pass 0  IDiag  1:
 E= -93.3626716257536     Delta-E=       -0.013656125028 Rises=F Damp=T
 DIIS: error= 4.59D-03 at cycle   2 NSaved=   2.
 NSaved= 2 IEnMin= 2 EnMin= -93.3626716257536     IErMin= 2 ErrMin= 4.59D-03
 ErrMax= 4.59D-03  0.00D+00 EMaxC= 1.00D-01 BMatC= 1.64D-03 BMatP= 3.13D-02
 IDIUse=3 WtCom= 9.54D-01 WtEn= 4.59D-02
 Coeff-Com: -0.123D+00 0.112D+01
 Coeff-En:   0.000D+00 0.100D+01
 Coeff:     -0.118D+00 0.112D+01
 Gap=     0.289 Goal=   None    Shift=    0.000
 RMSDP=8.70D-04 MaxDP=8.56D-03 DE=-1.37D-02 OVMax= 5.82D-02

 Cycle   3  Pass 0  IDiag  1:
 E= -93.3748419091995     Delta-E=       -0.012170283446 Rises=F Damp=F
 DIIS: error= 7.23D-03 at cycle   3 NSaved=   3.
 NSaved= 3 IEnMin= 3 EnMin= -93.3748419091995     IErMin= 2 ErrMin= 4.59D-03
 ErrMax= 7.23D-03  0.00D+00 EMaxC= 1.00D-01 BMatC= 9.47D-04 BMatP= 1.64D-03
 IDIUse=3 WtCom= 9.28D-01 WtEn= 7.23D-02
 Coeff-Com: -0.103D+00 0.514D+00 0.589D+00
 Coeff-En:   0.000D+00 0.000D+00 0.100D+01
 Coeff:     -0.956D-01 0.477D+00 0.619D+00
 Gap=     0.291 Goal=   None    Shift=    0.000
 RMSDP=6.89D-04 MaxDP=6.69D-03 DE=-1.22D-02 OVMax= 1.98D-02

 Cycle   4  Pass 0  IDiag  1:
 E= -93.3749211344565     Delta-E=       -0.000079225257 Rises=F Damp=F
 DIIS: error= 7.28D-03 at cycle   4 NSaved=   4.
 NSaved= 4 IEnMin= 4 EnMin= -93.3749211344565     IErMin= 2 ErrMin= 4.59D-03
 ErrMax= 7.28D-03  0.00D+00 EMaxC= 1.00D-01 BMatC= 8.40D-04 BMatP= 9.47D-04
 IDIUse=3 WtCom= 9.27D-01 WtEn= 7.28D-02
 Coeff-Com: -0.483D-01 0.118D+00 0.493D+00 0.437D+00
 Coeff-En:   0.000D+00 0.000D+00 0.480D+00 0.520D+00
 Coeff:     -0.448D-01 0.110D+00 0.492D+00 0.443D+00
 Gap=     0.286 Goal=   None    Shift=    0.000
 RMSDP=3.96D-04 MaxDP=4.74D-03 DE=-7.92D-05 OVMax= 1.07D-02

 Cycle   5  Pass 0  IDiag  1:
 E= -93.3756554616491     Delta-E=       -0.000734327193 Rises=F Damp=F
 DIIS: error= 3.32D-04 at cycle   5 NSaved=   5.
 NSaved= 5 IEnMin= 5 EnMin= -93.3756554616491     IErMin= 5 ErrMin= 3.32D-04
 ErrMax= 3.32D-04  0.00D+00 EMaxC= 1.00D-01 BMatC= 4.22D-06 BMatP= 8.40D-04
 IDIUse=3 WtCom= 9.97D-01 WtEn= 3.32D-03
 Coeff-Com: -0.140D-01 0.251D-01 0.172D+00 0.173D+00 0.644D+00
 Coeff-En:   0.000D+00 0.000D+00 0.000D+00 0.000D+00 0.100D+01
 Coeff:     -0.140D-01 0.250D-01 0.172D+00 0.172D+00 0.645D+00
 Gap=     0.287 Goal=   None    Shift=    0.000
 RMSDP=4.13D-05 MaxDP=3.66D-04 DE=-7.34D-04 OVMax= 9.57D-04

 Cycle   6  Pass 0  IDiag  1:
 E= -93.3756597640824     Delta-E=       -0.000004302433 Rises=F Damp=F
 DIIS: error= 3.56D-05 at cycle   6 NSaved=   6.
 NSaved= 6 IEnMin= 6 EnMin= -93.3756597640824     IErMin= 6 ErrMin= 3.56D-05
 ErrMax= 3.56D-05  0.00D+00 EMaxC= 1.00D-01 BMatC= 4.43D-08 BMatP= 4.22D-06
 IDIUse=1 WtCom= 1.00D+00 WtEn= 0.00D+00
 Coeff-Com:  0.167D-03-0.962D-03 0.109D-02 0.228D-02 0.912D-01 0.906D+00
 Coeff:      0.167D-03-0.962D-03 0.109D-02 0.228D-02 0.912D-01 0.906D+00
 Gap=     0.287 Goal=   None    Shift=    0.000
 RMSDP=5.62D-06 MaxDP=1.00D-04 DE=-4.30D-06 OVMax= 9.19D-05

 Initial convergence to 1.0D-05 achieved.  Increase integral accuracy.
 Cycle   7  Pass 1  IDiag  1:
 E= -93.3756554662843     Delta-E=        0.000004297798 Rises=F Damp=F
 DIIS: error= 5.43D-06 at cycle   1 NSaved=   1.
 NSaved= 1 IEnMin= 1 EnMin= -93.3756554662843     IErMin= 1 ErrMin= 5.43D-06
 ErrMax= 5.43D-06  0.00D+00 EMaxC= 1.00D-01 BMatC= 1.53D-09 BMatP= 1.53D-09
 IDIUse=1 WtCom= 1.00D+00 WtEn= 0.00D+00
 Coeff-Com:  0.100D+01
 Coeff:      0.100D+01
 Gap=     0.287 Goal=   None    Shift=    0.000
 RMSDP=5.62D-06 MaxDP=1.00D-04 DE= 4.30D-06 OVMax= 3.30D-05

 Cycle   8  Pass 1  IDiag  1:
 E= -93.3756554671709     Delta-E=       -0.000000000887 Rises=F Damp=F
 DIIS: error= 5.61D-06 at cycle   2 NSaved=   2.
 NSaved= 2 IEnMin= 2 EnMin= -93.3756554671709     IErMin= 1 ErrMin= 5.43D-06
 ErrMax= 5.61D-06  0.00D+00 EMaxC= 1.00D-01 BMatC= 5.88D-10 BMatP= 1.53D-09
 IDIUse=1 WtCom= 1.00D+00 WtEn= 0.00D+00
 Coeff-Com:  0.350D+00 0.650D+00
 Coeff:      0.350D+00 0.650D+00
 Gap=     0.287 Goal=   None    Shift=    0.000
 RMSDP=6.71D-07 MaxDP=9.19D-06 DE=-8.87D-10 OVMax= 1.73D-05

 Cycle   9  Pass 1  IDiag  1:
 E= -93.3756554671450     Delta-E=        0.000000000026 Rises=F Damp=F
 DIIS: error= 6.13D-06 at cycle   3 NSaved=   3.
 NSaved= 3 IEnMin= 2 EnMin= -93.3756554671709     IErMin= 1 ErrMin= 5.43D-06
 ErrMax= 6.13D-06  0.00D+00 EMaxC= 1.00D-01 BMatC= 6.51D-10 BMatP= 5.88D-10
 IDIUse=1 WtCom= 1.00D+00 WtEn= 0.00D+00
 Coeff-Com:  0.140D+00 0.482D+00 0.378D+00
 Coeff:      0.140D+00 0.482D+00 0.378D+00
 Gap=     0.287 Goal=   None    Shift=    0.000
 RMSDP=3.28D-07 MaxDP=3.28D-06 DE= 2.59D-11 OVMax= 8.92D-06

 Cycle  10  Pass 1  IDiag  1:
 E= -93.3756554676993     Delta-E=       -0.000000000554 Rises=F Damp=F
 DIIS: error= 5.72D-07 at cycle   4 NSaved=   4.
 NSaved= 4 IEnMin= 4 EnMin= -93.3756554676993     IErMin= 4 ErrMin= 5.72D-07
 ErrMax= 5.72D-07  0.00D+00 EMaxC= 1.00D-01 BMatC= 5.08D-12 BMatP= 5.88D-10
 IDIUse=1 WtCom= 1.00D+00 WtEn= 0.00D+00
 Coeff-Com:  0.328D-02 0.624D-01 0.105D+00 0.829D+00
 Coeff:      0.328D-02 0.624D-01 0.105D+00 0.829D+00
 Gap=     0.287 Goal=   None    Shift=    0.000
 RMSDP=5.43D-08 MaxDP=5.65D-07 DE=-5.54D-10 OVMax= 1.24D-06

 Cycle  11  Pass 1  IDiag  1:
 E= -93.3756554677041     Delta-E=       -0.000000000005 Rises=F Damp=F
 DIIS: error= 1.30D-07 at cycle   5 NSaved=   5.
 NSaved= 5 IEnMin= 5 EnMin= -93.3756554677041     IErMin= 5 ErrMin= 1.30D-07
 ErrMax= 1.30D-07  0.00D+00 EMaxC= 1.00D-01 BMatC= 5.33D-13 BMatP= 5.08D-12
 IDIUse=1 WtCom= 1.00D+00 WtEn= 0.00D+00
 Coeff-Com: -0.677D-02-0.512D-02 0.183D-01 0.334D+00 0.659D+00
 Coeff:     -0.677D-02-0.512D-02 0.183D-01 0.334D+00 0.659D+00
 Gap=     0.287 Goal=   None    Shift=    0.000
 RMSDP=1.47D-08 MaxDP=1.92D-07 DE=-4.82D-12 OVMax= 3.78D-07

 Cycle  12  Pass 1  IDiag  1:
 E= -93.3756554677049     Delta-E=       -0.000000000001 Rises=F Damp=F
 DIIS: error= 1.58D-08 at cycle   6 NSaved=   6.
 NSaved= 6 IEnMin= 6 EnMin= -93.3756554677049     IErMin= 6 ErrMin= 1.58D-08
 ErrMax= 1.58D-08  0.00D+00 EMaxC= 1.00D-01 BMatC= 8.97D-15 BMatP= 5.33D-13
 IDIUse=1 WtCom= 1.00D+00 WtEn= 0.00D+00
 Coeff-Com: -0.124D-02-0.599D-02-0.473D-02 0.702D-02 0.810D-01 0.924D+00
 Coeff:     -0.124D-02-0.599D-02-0.473D-02 0.702D-02 0.810D-01 0.924D+00
 Gap=     0.287 Goal=   None    Shift=    0.000
 RMSDP=3.36D-09 MaxDP=4.50D-08 DE=-7.96D-13 OVMax= 8.29D-08

 SCF Done:  E(RB3LYP) =  -93.3756554677     A.U. after   12 cycles
            NFock= 12  Conv=0.34D-08     -V/T= 2.0033
 KE= 9.307167353924D+01 PE=-2.660465400891D+02 EE= 5.547095649375D+01
 Leave Link  502 at Thu Apr 14 13:06:37 2016, MaxMem=   104857600 cpu:         0.8
 (Enter /home/projets/algogen/g09.D01/g09/l801.exe)
 DoSCS=F DFT=T ScalE2(SS,OS)=  1.000000  1.000000
 Range of M.O.s used for correlation:     1    42
 NBasis=    42 NAE=     7 NBE=     7 NFC=     0 NFV=     0
 NROrb=     42 NOA=     7 NOB=     7 NVA=    35 NVB=    35
 Leave Link  801 at Thu Apr 14 13:06:37 2016, MaxMem=   104857600 cpu:         0.0
 (Enter /home/projets/algogen/g09.D01/g09/l1101.exe)
 Using compressed storage, NAtomX=     3.
 Will process      4 centers per pass.
 Leave Link 1101 at Thu Apr 14 13:06:37 2016, MaxMem=   104857600 cpu:         0.1
 (Enter /home/projets/algogen/g09.D01/g09/l1102.exe)
 Symmetrizing basis deriv contribution to polar:
 IMax=3 JMax=2 DiffMx= 0.00D+00
 Leave Link 1102 at Thu Apr 14 13:06:38 2016, MaxMem=   104857600 cpu:         0.0
 (Enter /home/projets/algogen/g09.D01/g09/l1110.exe)
 Forming Gx(P) for the SCF density, NAtomX=     3.
 Integral derivatives from FoFJK, PRISM(SPDF).
 Do as many integral derivatives as possible in FoFJK.
 G2DrvN: MDV=     104857472.
 G2DrvN: will do     4 centers at a time, making    1 passes.
 Calling FoFCou, ICntrl=  3107 FMM=F I1Cent=   0 AccDes= 0.00D+00.
 FoFJK:  IHMeth= 1 ICntrl=    3107 DoSepK=F KAlg= 0 I1Cent=   0 FoldK=F
 IRaf=         0 NMat=   1 IRICut=       1 DoRegI=T DoRafI=F ISym2E= 1.
 FoFCou: FMM=F IPFlag=           0 FMFlag=      100000 FMFlg1=           0
         NFxFlg=           0 DoJE=F BraDBF=F KetDBF=F FulRan=T
         wScrn=  0.000000 ICntrl=    3107 IOpCl=  0 I1Cent=           0 NGrid=           0
         NMat0=    1 NMatS0=      1 NMatT0=    0 NMatD0=    1 NMtDS0=    0 NMtDT0=    0
 Petite list used in FoFCou.
 End of G2Drv F.D. properties file   721 does not exist.
 End of G2Drv F.D. properties file   722 does not exist.
 End of G2Drv F.D. properties file   788 does not exist.
 Leave Link 1110 at Thu Apr 14 13:06:38 2016, MaxMem=   104857600 cpu:         1.0
 (Enter /home/projets/algogen/g09.D01/g09/l1002.exe)
 Minotr:  Closed shell wavefunction.
          IDoAtm=111
          Direct CPHF calculation.
          Differentiating once with respect to electric field.
                with respect to dipole field.
          Differentiating once with respect to nuclear coordinates.
          Using symmetry in CPHF.
          Requested convergence is 1.0D-08 RMS, and 1.0D-07 maximum.
          Secondary convergence is 1.0D-12 RMS, and 1.0D-12 maximum.
          NewPWx=T KeepS1=F KeepF1=F KeepIn=T MapXYZ=F SortEE=F KeepMc=T.
          MDV=     104857524 using IRadAn=       2.
 Generate precomputed XC quadrature information.
 Keep R1 ints in memory in symmetry-blocked form, NReq=1274720.
 FoFCou: FMM=F IPFlag=           0 FMFlag=           0 FMFlg1=           0
         NFxFlg=           0 DoJE=F BraDBF=F KetDBF=F FulRan=T
         wScrn=  0.000000 ICntrl=     600 IOpCl=  0 I1Cent=           0 NGrid=           0
         NMat0=    1 NMatS0=    903 NMatT0=    0 NMatD0=    1 NMtDS0=    0 NMtDT0=    0
 Petite list used in FoFCou.
          Solving linear equations simultaneously, MaxMat=       0.
          There are    12 degrees of freedom in the 1st order CPHF.  IDoFFX=6 NUNeed=     3.
      9 vectors produced by pass  0 Test12= 2.04D-15 8.33D-09 XBig12= 1.91D+01 2.86D+00.
 AX will form     9 AO Fock derivatives at one time.
      9 vectors produced by pass  1 Test12= 2.04D-15 8.33D-09 XBig12= 1.07D+01 1.34D+00.
      9 vectors produced by pass  2 Test12= 2.04D-15 8.33D-09 XBig12= 5.12D-02 8.03D-02.
      9 vectors produced by pass  3 Test12= 2.04D-15 8.33D-09 XBig12= 8.19D-05 2.70D-03.
      9 vectors produced by pass  4 Test12= 2.04D-15 8.33D-09 XBig12= 7.07D-08 6.38D-05.
      8 vectors produced by pass  5 Test12= 2.04D-15 8.33D-09 XBig12= 1.03D-10 3.67D-06.
      4 vectors produced by pass  6 Test12= 2.04D-15 8.33D-09 XBig12= 1.17D-13 1.29D-07.
 InvSVY:  IOpt=1 It=  1 EMax= 6.66D-16
 Solved reduced A of dimension    57 with     9 vectors.
 FullF1:  Do perturbations    1 to     3.
 Isotropic polarizability for W=    0.000000       14.24 Bohr**3.
 End of Minotr F.D. properties file   721 does not exist.
 End of Minotr F.D. properties file   722 does not exist.
 End of Minotr F.D. properties file   788 does not exist.
 Leave Link 1002 at Thu Apr 14 13:06:40 2016, MaxMem=   104857600 cpu:         1.3
 (Enter /home/projets/algogen/g09.D01/g09/l601.exe)
 Copying SCF densities to generalized density rwf, IOpCl= 0 IROHF=0.

 **********************************************************************

            Population analysis using the SCF density.

 **********************************************************************

 Orbital symmetries:
       Occupied  (A') (A') (A') (A') (A') (A") (A')
       Virtual   (A') (A") (A') (A') (A') (A") (A') (A') (A') (A')
                 (A") (A') (A") (A') (A') (A") (A') (A') (A") (A')
                 (A") (A') (A') (A') (A") (A') (A") (A') (A') (A')
                 (A") (A') (A') (A') (A')
 The electronic state is 1-A'.
 Alpha  occ. eigenvalues --  -14.38619 -10.23862  -1.00263  -0.52674  -0.46373
 Alpha  occ. eigenvalues --   -0.39537  -0.34387
 Alpha virt. eigenvalues --   -0.05726  -0.00039   0.02699   0.21712   0.30002
 Alpha virt. eigenvalues --    0.39525   0.40664   0.52547   0.53945   0.63043
 Alpha virt. eigenvalues --    0.63756   0.72533   0.99544   1.03056   1.25877
 Alpha virt. eigenvalues --    1.35371   1.41300   1.54918   1.71238   1.88218
 Alpha virt. eigenvalues --    2.02200   2.14959   2.22434   2.38068   2.43473
 Alpha virt. eigenvalues --    2.69445   2.73098   2.83846   2.98317   3.14656
 Alpha virt. eigenvalues --    3.71408   3.85621   4.31963  23.91281  35.51590
     Molecular Orbital Coefficients:
                           1         2         3         4         5
                           O         O         O         O         O
     Eigenvalues --   -14.38619 -10.23862  -1.00263  -0.52674  -0.46373
   1 1   C  1S         -0.00007   0.56275  -0.07585   0.02819   0.07301
   2        2S          0.00058   0.46352  -0.11484   0.04550   0.11607
   3        2PX         0.00005  -0.00011  -0.01761   0.13678  -0.06917
   4        2PY        -0.00040  -0.00096  -0.10579  -0.04785   0.02091
   5        2PZ         0.00000   0.00000   0.00000   0.00000   0.00000
   6        3S         -0.00175   0.01778   0.29373  -0.13194  -0.33670
   7        3PX        -0.00027  -0.00207  -0.02541   0.19813  -0.09738
   8        3PY         0.00363  -0.00680  -0.12342  -0.05937   0.03418
   9        3PZ         0.00000   0.00000   0.00000   0.00000   0.00000
  10        4S          0.00302   0.00069   0.05571  -0.11663  -0.30591
  11        4PX         0.00025   0.00041  -0.00526   0.09852  -0.02878
  12        4PY        -0.00248  -0.00157   0.00093  -0.03091  -0.01083
  13        4PZ         0.00000   0.00000   0.00000   0.00000   0.00000
  14        5D 0        0.00116  -0.00250  -0.01566   0.00331   0.00171
  15        5D+1        0.00000   0.00000   0.00000   0.00000   0.00000
  16        5D-1        0.00000   0.00000   0.00000   0.00000   0.00000
  17        5D+2        0.00208  -0.00243  -0.01716  -0.02182   0.00520
  18        5D-2        0.00001   0.00083   0.00840  -0.03184   0.01625
  19 2   N  1S          0.55725  -0.00025  -0.09729  -0.05811  -0.05691
  20        2S          0.46598   0.00019  -0.15295  -0.09307  -0.09144
  21        2PX        -0.00030   0.00009  -0.01507   0.13464  -0.09852
  22        2PY         0.00084   0.00088   0.09519  -0.03672  -0.17962
  23        2PZ         0.00000   0.00000   0.00000   0.00000   0.00000
  24        3S          0.01552  -0.00231   0.41791   0.26999   0.26548
  25        3PX         0.00001  -0.00023  -0.02550   0.19896  -0.15041
  26        3PY         0.00346  -0.00522   0.12808  -0.04793  -0.24271
  27        3PZ         0.00000   0.00000   0.00000   0.00000   0.00000
  28        4S         -0.00772  -0.00696   0.25944   0.30483   0.38627
  29        4PX         0.00017   0.00021  -0.00950   0.11898  -0.11452
  30        4PY        -0.00220  -0.00274   0.04926  -0.03399  -0.16583
  31        4PZ         0.00000   0.00000   0.00000   0.00000   0.00000
  32        5D 0       -0.00068   0.00109  -0.01393   0.00371   0.00595
  33        5D+1        0.00000   0.00000   0.00000   0.00000   0.00000
  34        5D-1        0.00000   0.00000   0.00000   0.00000   0.00000
  35        5D+2       -0.00124   0.00223  -0.01508  -0.00379   0.02264
  36        5D-2        0.00001   0.00008  -0.00617   0.02345  -0.01341
  37 3   H  1S          0.00040   0.00009   0.07443  -0.15483   0.04736
  38        2S         -0.00039  -0.00250   0.07719  -0.25389   0.08935
  39        3S          0.00068   0.00174  -0.00540  -0.05249   0.07351
  40        4PX        -0.00015  -0.00211   0.01843  -0.02258   0.00490
  41        4PY        -0.00027  -0.00080  -0.00439  -0.00309  -0.01803
  42        4PZ         0.00000   0.00000   0.00000   0.00000   0.00000
                           6         7         8         9        10
                           O         O         V         V         V
     Eigenvalues --    -0.39537  -0.34387  -0.05726  -0.00039   0.02699
   1 1   C  1S          0.00000  -0.05313   0.02515   0.00000   0.02629
   2        2S          0.00000  -0.08593   0.03990   0.00000   0.04152
   3        2PX         0.00000   0.02589  -0.11859   0.00000   0.19449
   4        2PY         0.00000   0.21500  -0.03775   0.00000  -0.03053
   5        2PZ         0.16950   0.00000   0.00000   0.22438   0.00000
   6        3S          0.00000   0.23324  -0.10787   0.00000  -0.10453
   7        3PX         0.00000   0.03013  -0.18024   0.00000   0.27282
   8        3PY         0.00000   0.28095  -0.05904   0.00000  -0.02365
   9        3PZ         0.25076   0.00000   0.00000   0.33838   0.00000
  10        4S          0.00000   0.50493  -0.26313   0.00000  -0.90402
  11        4PX         0.00000   0.03015  -0.28846   0.00000   0.77762
  12        4PY         0.00000   0.14143  -0.11571   0.00000   0.02816
  13        4PZ         0.17903   0.00000   0.00000   0.65721   0.00000
  14        5D 0        0.00000   0.01092  -0.00955   0.00000   0.00315
  15        5D+1       -0.00865   0.00000   0.00000  -0.01100   0.00000
  16        5D-1       -0.04538   0.00000   0.00000   0.01581   0.00000
  17        5D+2        0.00000   0.02607   0.01725   0.00000   0.01544
  18        5D-2        0.00000  -0.01539  -0.02428   0.00000  -0.00858
  19 2   N  1S          0.00000  -0.00393   0.00899   0.00000   0.02304
  20        2S          0.00000  -0.00587   0.01416   0.00000   0.03739
  21        2PX         0.00000   0.05569   0.24838   0.00000  -0.01652
  22        2PY         0.00000  -0.17262  -0.00848   0.00000   0.01781
  23        2PZ         0.22821   0.00000   0.00000  -0.20953   0.00000
  24        3S          0.00000   0.01417  -0.03156   0.00000  -0.12075
  25        3PX         0.00000   0.08259   0.35355   0.00000  -0.02700
  26        3PY         0.00000  -0.23646  -0.02008   0.00000   0.02749
  27        3PZ         0.33563   0.00000   0.00000  -0.28994   0.00000
  28        4S          0.00000   0.02907  -0.22308   0.00000  -0.20111
  29        4PX         0.00000   0.08415   0.59081   0.00000  -0.07290
  30        4PY         0.00000  -0.21521  -0.03933   0.00000   0.12109
  31        4PZ         0.27841   0.00000   0.00000  -0.54835   0.00000
  32        5D 0        0.00000   0.01076   0.00112   0.00000  -0.00640
  33        5D+1       -0.00576   0.00000   0.00000   0.00324   0.00000
  34        5D-1        0.03154   0.00000   0.00000   0.01374   0.00000
  35        5D+2        0.00000   0.01659   0.00351   0.00000   0.01261
  36        5D-2        0.00000   0.00968  -0.00026   0.00000   0.01797
  37 3   H  1S          0.00000   0.00868   0.11097   0.00000   0.08064
  38        2S          0.00000   0.01079   0.27780   0.00000   0.17128
  39        3S          0.00000   0.08757   0.42217   0.00000   1.52059
  40        4PX         0.00000  -0.00709  -0.00301   0.00000  -0.02767
  41        4PY         0.00000   0.01494   0.03288   0.00000  -0.02259
  42        4PZ         0.02480   0.00000   0.00000   0.01445   0.00000
                          11        12        13        14        15
                           V         V         V         V         V
     Eigenvalues --     0.21712   0.30002   0.39525   0.40664   0.52547
   1 1   C  1S         -0.00603  -0.02837   0.00000   0.04167   0.06801
   2        2S         -0.00916  -0.04836   0.00000   0.07425   0.13425
   3        2PX         0.02601  -0.05103   0.00000  -0.19233  -0.02834
   4        2PY         0.01483  -0.00591   0.00000  -0.08145   0.10357
   5        2PZ         0.00000   0.00000  -0.22770   0.00000   0.00000
   6        3S         -0.01467   0.06159   0.00000  -0.35856  -1.17192
   7        3PX         0.02626  -0.12160   0.00000  -0.69675  -0.20926
   8        3PY         0.03875  -0.06309   0.00000  -0.41916   0.24511
   9        3PZ         0.00000   0.00000  -0.83771   0.00000   0.00000
  10        4S          1.85488   2.96263   0.00000   0.58458   0.18546
  11        4PX         0.35562  -0.58415   0.00000   1.08830  -0.10059
  12        4PY        -1.33515  -2.26839   0.00000   0.27448  -0.16857
  13        4PZ         0.00000   0.00000   1.12483   0.00000   0.00000
  14        5D 0       -0.01247   0.01199   0.00000  -0.01120  -0.02585
  15        5D+1        0.00000   0.00000   0.00330   0.00000   0.00000
  16        5D-1        0.00000   0.00000   0.05110   0.00000   0.00000
  17        5D+2        0.01603  -0.02141   0.00000  -0.04056  -0.03509
  18        5D-2        0.00683   0.01693   0.00000   0.03257   0.03862
  19 2   N  1S          0.03194   0.03368   0.00000   0.01360  -0.03500
  20        2S          0.05177   0.05483   0.00000   0.02402  -0.05585
  21        2PX         0.00712  -0.04950   0.00000  -0.04119  -0.02426
  22        2PY        -0.07211  -0.00542   0.00000   0.05093  -0.05122
  23        2PZ         0.00000   0.00000  -0.04494   0.00000   0.00000
  24        3S         -0.12082  -0.12314   0.00000  -0.06553   0.10762
  25        3PX         0.02216  -0.06360   0.00000  -0.15643  -0.06690
  26        3PY        -0.10795   0.00797   0.00000   0.09049  -0.41185
  27        3PZ         0.00000   0.00000  -0.15992   0.00000   0.00000
  28        4S         -1.51390  -2.72241   0.00000  -0.51670   0.53096
  29        4PX        -0.04532  -0.11946   0.00000   0.19264   0.00289
  30        4PY        -0.73874  -1.07793   0.00000  -0.55405   1.60048
  31        4PZ         0.00000   0.00000   0.11215   0.00000   0.00000
  32        5D 0        0.00124   0.03350   0.00000   0.01841   0.04402
  33        5D+1        0.00000   0.00000   0.00055   0.00000   0.00000
  34        5D-1        0.00000   0.00000  -0.03696   0.00000   0.00000
  35        5D+2        0.02792   0.00205   0.00000   0.02337   0.06137
  36        5D-2       -0.00417   0.00586   0.00000  -0.02705  -0.00289
  37 3   H  1S          0.12994  -0.08882   0.00000  -0.04097  -0.00868
  38        2S          0.99723  -1.20539   0.00000  -0.03427  -0.54581
  39        3S         -1.35602   0.14716   0.00000   0.64747  -0.00736
  40        4PX         0.02934  -0.01486   0.00000   0.04579  -0.09783
  41        4PY        -0.01127  -0.00529   0.00000  -0.01475  -0.02689
  42        4PZ         0.00000   0.00000  -0.01061   0.00000   0.00000
                          16        17        18        19        20
                           V         V         V         V         V
     Eigenvalues --     0.53945   0.63043   0.63756   0.72533   0.99544
   1 1   C  1S          0.06135  -0.01663   0.00000   0.06546   0.00000
   2        2S          0.11754  -0.03416   0.00000   0.12794   0.00000
   3        2PX         0.17087   0.05020   0.00000   0.01965   0.00000
   4        2PY        -0.12333   0.08393   0.00000   0.23284   0.00000
   5        2PZ         0.00000   0.00000   0.10241   0.00000  -0.05222
   6        3S         -0.91410   0.38296   0.00000  -0.81199   0.00000
   7        3PX         0.49165   0.13655   0.00000   0.02168   0.00000
   8        3PY        -0.72394   0.32608   0.00000   0.58880   0.00000
   9        3PZ         0.00000   0.00000   0.22187   0.00000  -0.05330
  10        4S          3.49707  -1.34630   0.00000   0.85891   0.00000
  11        4PX        -1.33377  -0.27708   0.00000  -0.30781   0.00000
  12        4PY        -0.53602   0.16799   0.00000  -0.31215   0.00000
  13        4PZ         0.00000   0.00000  -0.85521   0.00000  -0.04917
  14        5D 0       -0.03430  -0.01994   0.00000  -0.07146   0.00000
  15        5D+1        0.00000   0.00000  -0.01135   0.00000  -0.55472
  16        5D-1        0.00000   0.00000   0.06622   0.00000  -0.10073
  17        5D+2       -0.02692  -0.02540   0.00000  -0.12851   0.00000
  18        5D-2        0.03321   0.04393   0.00000   0.00081   0.00000
  19 2   N  1S          0.02016  -0.01177   0.00000   0.01298   0.00000
  20        2S          0.03706  -0.02414   0.00000   0.03220   0.00000
  21        2PX        -0.06830  -0.21842   0.00000   0.05005   0.00000
  22        2PY        -0.00937   0.04517   0.00000   0.28090   0.00000
  23        2PZ         0.00000   0.00000  -0.24526   0.00000  -0.01641
  24        3S         -0.12407   0.16991   0.00000  -0.37611   0.00000
  25        3PX        -0.19449  -0.76987   0.00000   0.14056   0.00000
  26        3PY        -0.11130   0.13136   0.00000   0.69287   0.00000
  27        3PZ         0.00000   0.00000  -0.81552   0.00000   0.01102
  28        4S         -1.54038   0.23787   0.00000   0.66123   0.00000
  29        4PX         0.32212   1.56095   0.00000  -0.22042   0.00000
  30        4PY        -1.03800   0.13457   0.00000  -0.31926   0.00000
  31        4PZ         0.00000   0.00000   1.48508   0.00000  -0.12926
  32        5D 0        0.02890  -0.01199   0.00000   0.04459   0.00000
  33        5D+1        0.00000   0.00000  -0.00185   0.00000  -0.18565
  34        5D-1        0.00000   0.00000  -0.01546   0.00000   0.04003
  35        5D+2        0.04056   0.01450   0.00000   0.08763   0.00000
  36        5D-2        0.01503  -0.02315   0.00000  -0.00178   0.00000
  37 3   H  1S          0.06296  -0.04642   0.00000   0.02627   0.00000
  38        2S          0.01983   0.42135   0.00000   0.01022   0.00000
  39        3S         -1.46270   0.63624   0.00000  -0.72923   0.00000
  40        4PX        -0.07222   0.10955   0.00000  -0.07133   0.00000
  41        4PY        -0.05216  -0.06763   0.00000  -0.12029   0.00000
  42        4PZ         0.00000   0.00000   0.02385   0.00000   0.61871
                          21        22        23        24        25
                           V         V         V         V         V
     Eigenvalues --     1.03056   1.25877   1.35371   1.41300   1.54918
   1 1   C  1S         -0.02268   0.01053   0.00000  -0.02129   0.01251
   2        2S         -0.02608   0.02583   0.00000  -0.04186   0.02647
   3        2PX        -0.00680  -0.02974   0.00000  -0.04565   0.05858
   4        2PY        -0.13318  -0.00911   0.00000  -0.05104   0.05150
   5        2PZ         0.00000   0.00000   0.05361   0.00000   0.00000
   6        3S         -0.02256  -0.20230   0.00000   0.32793  -0.15588
   7        3PX        -0.08441  -0.04091   0.00000  -0.18026  -0.00480
   8        3PY         0.35510   0.18444   0.00000  -0.02499   0.24357
   9        3PZ         0.00000   0.00000   0.09929   0.00000   0.00000
  10        4S         -4.44414  -0.82600   0.00000  -0.90001  -1.53772
  11        4PX         0.01363   0.25326   0.00000   0.47088   0.22159
  12        4PY         2.34945   0.39995   0.00000   0.48984   0.65330
  13        4PZ         0.00000   0.00000  -0.19255   0.00000   0.00000
  14        5D 0        0.22184  -0.34124   0.00000   0.61708   0.12567
  15        5D+1        0.00000   0.00000  -0.29198   0.00000   0.00000
  16        5D-1        0.00000   0.00000   0.85640   0.00000   0.00000
  17        5D+2        0.33675   0.28712   0.00000  -0.37786   0.05860
  18        5D-2        0.04840  -0.63560   0.00000  -0.30559   0.50169
  19 2   N  1S          0.11155   0.00725   0.00000   0.00363  -0.00352
  20        2S          0.22163   0.01800   0.00000   0.00865   0.00031
  21        2PX        -0.01104  -0.10759   0.00000  -0.07131  -0.04971
  22        2PY        -0.12137   0.03142   0.00000  -0.00359   0.06544
  23        2PZ         0.00000   0.00000   0.09094   0.00000   0.00000
  24        3S         -1.85369  -0.27296   0.00000  -0.08411  -0.24650
  25        3PX        -0.06192  -0.21642   0.00000  -0.14982   0.02772
  26        3PY         0.05466   0.13011   0.00000  -0.02877   0.20332
  27        3PZ         0.00000   0.00000   0.22351   0.00000   0.00000
  28        4S          5.96377   1.30205   0.00000   0.60354   1.89345
  29        4PX         0.13948  -0.25429   0.00000   0.17889  -0.16652
  30        4PY         2.23382   0.45653   0.00000   0.09772   0.69384
  31        4PZ         0.00000   0.00000   0.15044   0.00000   0.00000
  32        5D 0       -0.04811  -0.01637   0.00000   0.08422   0.36069
  33        5D+1        0.00000   0.00000  -0.05433   0.00000   0.00000
  34        5D-1        0.00000   0.00000  -0.26828   0.00000   0.00000
  35        5D+2       -0.08594  -0.00812   0.00000  -0.10424  -0.23678
  36        5D-2       -0.01089   0.21624   0.00000   0.10730  -0.04831
  37 3   H  1S          0.08620  -0.10958   0.00000  -0.32751   0.06181
  38        2S         -0.40867   0.08702   0.00000   1.18887  -0.14709
  39        3S          0.46214  -0.08455   0.00000  -0.27920   0.19165
  40        4PX        -0.00537  -0.12038   0.00000  -0.40968  -0.26080
  41        4PY        -0.05753   0.41713   0.00000  -0.03495   0.81201
  42        4PZ         0.00000   0.00000  -0.08814   0.00000   0.00000
                          26        27        28        29        30
                           V         V         V         V         V
     Eigenvalues --     1.71238   1.88218   2.02200   2.14959   2.22434
   1 1   C  1S          0.00000   0.02845   0.00000   0.00242   0.02179
   2        2S          0.00000   0.04620   0.00000  -0.00611   0.05388
   3        2PX         0.00000   0.04304   0.00000   0.48370   0.03485
   4        2PY         0.00000   0.39002   0.00000   0.13452  -0.22671
   5        2PZ        -0.07008   0.00000  -0.06112   0.00000   0.00000
   6        3S          0.00000   0.02991   0.00000   0.17939  -0.43695
   7        3PX         0.00000   0.18375   0.00000  -0.44993   0.28013
   8        3PY         0.00000  -0.02985   0.00000  -0.22367   0.46216
   9        3PZ         0.05058   0.00000   0.05377   0.00000   0.00000
  10        4S          0.00000  -0.78108   0.00000  -0.26292  -0.91626
  11        4PX         0.00000   0.25648   0.00000   0.42572   0.17158
  12        4PY         0.00000   0.63019   0.00000  -0.07212   0.18738
  13        4PZ        -0.21022   0.00000  -0.08169   0.00000   0.00000
  14        5D 0        0.00000   0.84454   0.00000   0.17032   0.26486
  15        5D+1        0.84034   0.00000  -0.15876   0.00000   0.00000
  16        5D-1        0.29523   0.00000   0.05998   0.00000   0.00000
  17        5D+2        0.00000   0.66967   0.00000  -0.53501  -0.57644
  18        5D-2        0.00000  -0.18914   0.00000  -0.32054   0.22555
  19 2   N  1S          0.00000  -0.04135   0.00000   0.00012   0.01941
  20        2S          0.00000  -0.09561   0.00000   0.00542   0.04280
  21        2PX         0.00000   0.00370   0.00000   0.00226  -0.01002
  22        2PY         0.00000   0.09564   0.00000  -0.03148   0.00886
  23        2PZ         0.01619   0.00000   0.00972   0.00000   0.00000
  24        3S          0.00000   0.89889   0.00000  -0.05525  -0.48181
  25        3PX         0.00000  -0.01093   0.00000  -0.12788   0.09771
  26        3PY         0.00000   0.65969   0.00000  -0.20516  -0.11227
  27        3PZ         0.10240   0.00000   0.01936   0.00000   0.00000
  28        4S          0.00000  -0.00993   0.00000  -0.39118   1.16999
  29        4PX         0.00000   0.06412   0.00000   0.02052  -0.10531
  30        4PY         0.00000  -0.46694   0.00000  -0.01604   0.58155
  31        4PZ        -0.05895   0.00000  -0.02172   0.00000   0.00000
  32        5D 0        0.00000  -0.03328   0.00000   0.03718  -0.67660
  33        5D+1       -0.09760   0.00000   0.99079   0.00000   0.00000
  34        5D-1       -0.06952   0.00000  -0.02671   0.00000   0.00000
  35        5D+2        0.00000   0.28130   0.00000  -0.03244   0.26817
  36        5D-2        0.00000   0.02044   0.00000   0.15427   0.24489
  37 3   H  1S          0.00000  -0.01683   0.00000   1.17153  -0.34476
  38        2S          0.00000   0.52268   0.00000  -1.05185   0.76694
  39        3S          0.00000   0.23034   0.00000   0.85231  -0.09977
  40        4PX         0.00000   0.38733   0.00000   0.36484   0.37730
  41        4PY         0.00000   0.12919   0.00000   0.14309   0.73911
  42        4PZ         0.85427   0.00000   0.29416   0.00000   0.00000
                          31        32        33        34        35
                           V         V         V         V         V
     Eigenvalues --     2.38068   2.43473   2.69445   2.73098   2.83846
   1 1   C  1S          0.01719   0.00000   0.00617   0.00000   0.04225
   2        2S          0.04130   0.00000   0.02648   0.00000   0.10974
   3        2PX         0.59877   0.00000   0.10000   0.00000  -0.15150
   4        2PY        -0.17980   0.00000   0.11502   0.00000   0.61034
   5        2PZ         0.00000   0.82772   0.00000  -1.00959   0.00000
   6        3S         -0.20924   0.00000  -0.40621   0.00000  -0.89089
   7        3PX         0.03091   0.00000  -0.44466   0.00000   0.49408
   8        3PY         0.30550   0.00000   0.46948   0.00000   0.13746
   9        3PZ         0.00000  -0.67397   0.00000   1.38282   0.00000
  10        4S         -0.61614   0.00000  -1.12007   0.00000  -1.18309
  11        4PX         0.70295   0.00000   0.04344   0.00000   0.01646
  12        4PY         0.12946   0.00000   0.51188   0.00000   0.67375
  13        4PZ         0.00000   0.53954   0.00000  -0.32197   0.00000
  14        5D 0        0.13476   0.00000   0.05044   0.00000   0.26045
  15        5D+1        0.00000   0.03405   0.00000  -0.03670   0.00000
  16        5D-1        0.00000  -0.61520   0.00000  -0.55518   0.00000
  17        5D+2       -0.33106   0.00000   0.58806   0.00000   0.07913
  18        5D-2       -0.69372   0.00000  -0.11293   0.00000  -0.09380
  19 2   N  1S          0.01320   0.00000  -0.01479   0.00000   0.00364
  20        2S          0.02294   0.00000  -0.02535   0.00000   0.00982
  21        2PX         0.00722   0.00000  -0.26613   0.00000   0.14730
  22        2PY        -0.05964   0.00000   0.26870   0.00000   0.33850
  23        2PZ         0.00000  -0.03596   0.00000  -0.20022   0.00000
  24        3S         -0.10843   0.00000  -0.08836   0.00000  -0.16658
  25        3PX         0.04397   0.00000   0.11367   0.00000  -0.08654
  26        3PY        -0.04362   0.00000   0.20666   0.00000  -0.16307
  27        3PZ         0.00000   0.01105   0.00000  -0.00645   0.00000
  28        4S          0.06592   0.00000   2.26530   0.00000   1.33732
  29        4PX        -0.18875   0.00000  -0.60972   0.00000   0.31369
  30        4PY        -0.01365   0.00000   1.19820   0.00000   0.75765
  31        4PZ         0.00000  -0.39111   0.00000  -0.23890   0.00000
  32        5D 0        0.22626   0.00000  -0.72060   0.00000  -0.25365
  33        5D+1        0.00000   0.02041   0.00000  -0.03581   0.00000
  34        5D-1        0.00000  -0.82695   0.00000  -0.80423   0.00000
  35        5D+2       -0.09018   0.00000  -0.27836   0.00000  -0.96157
  36        5D-2       -0.64125   0.00000  -0.74096   0.00000   0.23368
  37 3   H  1S         -0.65858   0.00000   0.48097   0.00000  -0.39954
  38        2S          1.62494   0.00000  -1.72556   0.00000   1.17991
  39        3S         -0.08152   0.00000   0.28787   0.00000  -0.08012
  40        4PX         0.73410   0.00000  -0.90334   0.00000   0.66420
  41        4PY         0.25103   0.00000   0.17332   0.00000  -0.05420
  42        4PZ         0.00000   0.07938   0.00000  -0.11556   0.00000
                          36        37        38        39        40
                           V         V         V         V         V
     Eigenvalues --     2.98317   3.14656   3.71408   3.85621   4.31963
   1 1   C  1S          0.06451   0.05623   0.00000   0.01691   0.05621
   2        2S          0.14294   0.09850   0.00000   0.03470   0.13809
   3        2PX         0.27625  -1.08993   0.00000   0.13061   0.04433
   4        2PY        -1.04852  -0.39186   0.00000   0.02059   0.17695
   5        2PZ         0.00000   0.00000   0.15844   0.00000   0.00000
   6        3S         -0.97521  -0.53082   0.00000  -0.27034  -1.17673
   7        3PX        -0.47720   2.09493   0.00000  -0.22246  -0.16039
   8        3PY         2.77944   0.97830   0.00000   0.20725   1.45668
   9        3PZ         0.00000   0.00000  -0.36731   0.00000   0.00000
  10        4S         -2.16284  -0.53788   0.00000   0.46220  -1.25338
  11        4PX         0.18081  -0.19800   0.00000   0.08608   0.02024
  12        4PY         0.40533  -0.05013   0.00000  -0.17707   0.54412
  13        4PZ         0.00000   0.00000   0.24532   0.00000   0.00000
  14        5D 0        0.60571   0.50558   0.00000   0.05481   0.38590
  15        5D+1        0.00000   0.00000   0.00671   0.00000   0.00000
  16        5D-1        0.00000   0.00000   0.28351   0.00000   0.00000
  17        5D+2        1.12199  -0.33076   0.00000   0.10440   0.80296
  18        5D-2        0.13208  -0.75487   0.00000   0.25630   0.04612
  19 2   N  1S         -0.04775  -0.00726   0.00000  -0.00604  -0.04508
  20        2S         -0.11954  -0.02323   0.00000  -0.01394  -0.07928
  21        2PX         0.11595  -0.13948   0.00000  -1.24728   0.16899
  22        2PY         0.14811  -0.07870   0.00000  -0.15341  -1.27649
  23        2PZ         0.00000   0.00000  -1.27913   0.00000   0.00000
  24        3S          1.07975   0.31362   0.00000   0.21707   0.52651
  25        3PX        -0.08631  -0.03795   0.00000   1.60303  -0.23076
  26        3PY         1.25067   0.36898   0.00000   0.30229   2.55132
  27        3PZ         0.00000   0.00000   1.55830   0.00000   0.00000
  28        4S          2.10694   0.00497   0.00000  -0.47778   2.12140
  29        4PX         0.28100  -0.06411   0.00000  -0.46182   0.00197
  30        4PY         1.00307  -0.13758   0.00000  -0.29731   0.30372
  31        4PZ         0.00000   0.00000  -0.62585   0.00000   0.00000
  32        5D 0       -0.25781   0.09309   0.00000   0.05580  -0.50138
  33        5D+1        0.00000   0.00000   0.00972   0.00000   0.00000
  34        5D-1        0.00000   0.00000   0.20447   0.00000   0.00000
  35        5D+2       -0.71152  -0.17172   0.00000  -0.19327  -0.69556
  36        5D-2        0.29580  -0.44853   0.00000   0.34371  -0.06654
  37 3   H  1S          0.12034   0.38285   0.00000  -0.21425   0.02700
  38        2S         -0.14828   1.02627   0.00000   0.47203  -0.31127
  39        3S          0.44008  -0.09485   0.00000  -0.24932   0.08305
  40        4PX         0.06930   1.01778   0.00000   0.31864  -0.26752
  41        4PY        -0.25640   0.43424   0.00000  -0.27324   0.09227
  42        4PZ         0.00000   0.00000   0.02555   0.00000   0.00000
                          41        42
                           V         V
     Eigenvalues --    23.91281  35.51590
   1 1   C  1S         -2.03807   0.09519
   2        2S          2.24390  -0.13841
   3        2PX        -0.03672  -0.00086
   4        2PY        -0.06404   0.03262
   5        2PZ         0.00000   0.00000
   6        3S         -0.74700   0.16487
   7        3PX         0.15008   0.00917
   8        3PY         0.56374  -0.29205
   9        3PZ         0.00000   0.00000
  10        4S         -0.26854  -0.06494
  11        4PX        -0.01122  -0.01329
  12        4PY         0.13627   0.09158
  13        4PZ         0.00000   0.00000
  14        5D 0        0.17780  -0.09395
  15        5D+1        0.00000   0.00000
  16        5D-1        0.00000   0.00000
  17        5D+2        0.17982  -0.16018
  18        5D-2       -0.05320   0.00266
  19 2   N  1S         -0.08413  -2.14728
  20        2S          0.04920   2.28449
  21        2PX        -0.00753  -0.00032
  22        2PY        -0.07787   0.05293
  23        2PZ         0.00000   0.00000
  24        3S          0.18461  -0.50447
  25        3PX         0.01394   0.00411
  26        3PY         0.45482  -0.28514
  27        3PZ         0.00000   0.00000
  28        4S          0.59268   0.24396
  29        4PX        -0.00694  -0.01316
  30        4PY         0.21281   0.08495
  31        4PZ         0.00000   0.00000
  32        5D 0       -0.10500   0.04635
  33        5D+1        0.00000   0.00000
  34        5D-1        0.00000   0.00000
  35        5D+2       -0.20898   0.08741
  36        5D-2       -0.00588  -0.00244
  37 3   H  1S         -0.00387  -0.02626
  38        2S          0.17235   0.01773
  39        3S         -0.06894  -0.03786
  40        4PX         0.14810   0.00086
  41        4PY         0.05795   0.01477
  42        4PZ         0.00000   0.00000
     Density Matrix:
                           1         2         3         4         5
   1 1   C  1S          0.66277
   2        2S          0.56775   0.50193
   3        2PX        -0.00259  -0.00412   0.04895
   4        2PY        -0.00752  -0.01304  -0.00112   0.12029
   5        2PZ         0.00000   0.00000   0.00000   0.00000   0.05746
   6        3S         -0.10593  -0.18123   0.01222   0.03666   0.00000
   7        3PX        -0.00472  -0.00583   0.07013  -0.00469   0.00000
   8        3PY        -0.01714  -0.02370  -0.00207   0.15404   0.00000
   9        3PZ         0.00000   0.00000   0.00000   0.00000   0.08501
  10        4S         -0.11257  -0.18056   0.03460   0.20370   0.00000
  11        4PX        -0.00059  -0.00131   0.03268   0.00345   0.00000
  12        4PY        -0.02025  -0.03130   0.00034   0.06313   0.00000
  13        4PZ         0.00000   0.00000   0.00000   0.00000   0.06069
  14        5D 0       -0.00116   0.00010   0.00179   0.00777   0.00000
  15        5D+1        0.00000   0.00000   0.00000   0.00000  -0.00293
  16        5D-1        0.00000   0.00000   0.00000   0.00000  -0.01539
  17        5D+2       -0.00337  -0.00357  -0.00473   0.01715   0.00000
  18        5D-2        0.00188   0.00236  -0.01205  -0.00467   0.00000
  19 2   N  1S          0.00323   0.00493  -0.00475   0.02163   0.00000
  20        2S          0.00539   0.00716  -0.00768   0.03454   0.00000
  21        2PX        -0.01033  -0.01665   0.05388   0.01013   0.00000
  22        2PY        -0.02341  -0.03642   0.00251  -0.09837   0.00000
  23        2PZ         0.00000   0.00000   0.00000   0.00000   0.07736
  24        3S         -0.01352  -0.01435   0.02315  -0.09707   0.00000
  25        3PX        -0.01591  -0.02536   0.08041   0.01558   0.00000
  26        3PY        -0.03832  -0.05432   0.00371  -0.13433   0.00000
  27        3PZ         0.00000   0.00000   0.00000   0.00000   0.11378
  28        4S          0.02331   0.04637   0.02232  -0.05539   0.00000
  29        4PX        -0.01727  -0.02784   0.05308   0.02202   0.00000
  30        4PY        -0.01381  -0.01845   0.00077  -0.10664   0.00000
  31        4PZ         0.00000   0.00000   0.00000   0.00000   0.09438
  32        5D 0        0.00328   0.00408   0.00124   0.00747   0.00000
  33        5D+1        0.00000   0.00000   0.00000   0.00000  -0.00195
  34        5D-1        0.00000   0.00000   0.00000   0.00000   0.01069
  35        5D+2        0.00613   0.00759  -0.00278   0.01163   0.00000
  36        5D-2       -0.00064  -0.00115   0.00899   0.00266   0.00000
  37 3   H  1S         -0.01393  -0.02160  -0.05108   0.00478   0.00000
  38        2S         -0.01693  -0.02426  -0.08397   0.01634   0.00000
  39        3S          0.00125   0.00010  -0.01981   0.04689   0.00000
  40        4PX        -0.00498  -0.00589  -0.00787  -0.00458   0.00000
  41        4PY        -0.00463  -0.00677   0.00258   0.00690   0.00000
  42        4PZ         0.00000   0.00000   0.00000   0.00000   0.00841
                           6         7         8         9        10
   6        3S          0.54354
   7        3PX         0.01235   0.10059
   8        3PY         0.05095  -0.00695   0.19784
   9        3PZ         0.00000   0.00000   0.00000   0.12576
  10        4S          0.50506   0.04096   0.26292   0.00000   0.73051
  11        4PX         0.00437   0.04673   0.00457   0.00000   0.02449
  12        4PY         0.08192  -0.00165   0.08217   0.00000   0.15675
  13        4PZ         0.00000   0.00000   0.00000   0.08979   0.00000
  14        5D 0       -0.00622   0.00244   0.00977   0.00000   0.00747
  15        5D+1        0.00000   0.00000   0.00000  -0.00434   0.00000
  16        5D-1        0.00000   0.00000   0.00000  -0.02276   0.00000
  17        5D+2        0.00425  -0.00720   0.02188   0.00000   0.02634
  18        5D-2       -0.00476  -0.01714  -0.00584   0.00000  -0.01712
  19 2   N  1S         -0.00729  -0.00754   0.02887   0.00000   0.03694
  20        2S         -0.00808  -0.01190   0.04263   0.00000   0.05750
  21        2PX         0.04795   0.07666   0.01229   0.00000   0.08343
  22        2PY         0.10607   0.00519  -0.12842   0.00000  -0.04525
  23        2PZ         0.00000   0.00000   0.00000   0.11445   0.00000
  24        3S          0.00196   0.03490  -0.10896   0.00000  -0.16443
  25        3PX         0.07232   0.11441   0.01880   0.00000   0.12618
  26        3PY         0.14083   0.00754  -0.17529   0.00000  -0.06483
  27        3PZ         0.00000   0.00000   0.00000   0.16832   0.00000
  28        4S         -0.17481   0.03416  -0.05746   0.00000  -0.24923
  29        4PX         0.07940   0.07500   0.02767   0.00000   0.12623
  30        4PY         0.04909   0.00337  -0.14037   0.00000  -0.10248
  31        4PZ         0.00000   0.00000   0.00000   0.13962   0.00000
  32        5D 0       -0.00811   0.00167   0.00943   0.00000   0.00481
  33        5D+1        0.00000   0.00000   0.00000  -0.00289   0.00000
  34        5D-1        0.00000   0.00000   0.00000   0.01582   0.00000
  35        5D+2       -0.01528  -0.00415   0.01500   0.00000   0.00210
  36        5D-2        0.00374   0.01280   0.00326   0.00000   0.01183
  37 3   H  1S          0.05674  -0.07384   0.00813   0.00000   0.02420
  38        2S          0.05712  -0.12127   0.02329   0.00000   0.02404
  39        3S          0.00208  -0.02957   0.06178   0.00000   0.05510
  40        4PX         0.01010  -0.01126  -0.00549   0.00000  -0.00284
  41        4PY         0.01732   0.00341   0.00862   0.00000   0.02635
  42        4PZ         0.00000   0.00000   0.00000   0.01244   0.00000
                          11        12        13        14        15
  11        4PX         0.02294
  12        4PY         0.00305   0.04217
  13        4PZ         0.00000   0.00000   0.06411
  14        5D 0        0.00138   0.00282   0.00000   0.00077
  15        5D+1        0.00000   0.00000  -0.00310   0.00000   0.00015
  16        5D-1        0.00000   0.00000  -0.01625   0.00000   0.00078
  17        5D+2       -0.00285   0.00858   0.00000   0.00100   0.00000
  18        5D-2       -0.00822  -0.00273   0.00000  -0.00076   0.00000
  19 2   N  1S         -0.00711   0.00077   0.00000   0.00368   0.00000
  20        2S         -0.01158   0.00348   0.00000   0.00481   0.00000
  21        2PX         0.03572   0.00954   0.00000   0.00224   0.00000
  22        2PY        -0.00831  -0.04250   0.00000  -0.00761   0.00000
  23        2PZ         0.00000   0.00000   0.08172   0.00000  -0.00395
  24        3S          0.03438  -0.01773   0.00000  -0.01004   0.00000
  25        3PX         0.05311   0.01427   0.00000   0.00341   0.00000
  26        3PY        -0.01108  -0.05843   0.00000  -0.01029   0.00000
  27        3PZ         0.00000   0.00000   0.12018   0.00000  -0.00580
  28        4S          0.03684  -0.01845   0.00000  -0.00413   0.00000
  29        4PX         0.03521   0.01891   0.00000   0.00253   0.00000
  30        4PY        -0.01065  -0.05507   0.00000  -0.00703   0.00000
  31        4PZ         0.00000   0.00000   0.09969   0.00000  -0.00481
  32        5D 0        0.00119   0.00266   0.00000   0.00071   0.00000
  33        5D+1        0.00000   0.00000  -0.00206   0.00000   0.00010
  34        5D-1        0.00000   0.00000   0.01129   0.00000  -0.00055
  35        5D+2       -0.00089   0.00441   0.00000   0.00087   0.00000
  36        5D-2        0.00604   0.00157   0.00000   0.00051   0.00000
  37 3   H  1S         -0.03349   0.01113   0.00000  -0.00301   0.00000
  38        2S         -0.05533   0.01696   0.00000  -0.00355   0.00000
  39        3S         -0.00924   0.02640   0.00000   0.00198   0.00000
  40        4PX        -0.00535  -0.00067   0.00000  -0.00085   0.00000
  41        4PY         0.00137   0.00480   0.00000   0.00038   0.00000
  42        4PZ         0.00000   0.00000   0.00888   0.00000  -0.00043
                          16        17        18        19        20
  16        5D-1        0.00412
  17        5D+2        0.00000   0.00297
  18        5D-2        0.00000   0.00046   0.00317
  19 2   N  1S          0.00000   0.00740   0.00035   0.65324
  20        2S          0.00000   0.00999   0.00058   0.57036   0.51518
  21        2PX         0.00000  -0.00348  -0.01374  -0.00227  -0.00337
  22        2PY         0.00000  -0.01253   0.00341   0.00848   0.01337
  23        2PZ        -0.02071   0.00000   0.00000   0.00000   0.00000
  24        3S          0.00000  -0.02255  -0.00199  -0.12572  -0.21235
  25        3PX         0.00000  -0.00506  -0.02053  -0.00168  -0.00268
  26        3PY         0.00000  -0.01712   0.00459   0.01399   0.02013
  27        3PZ        -0.03046   0.00000   0.00000   0.00000   0.00000
  28        4S          0.00000  -0.01667  -0.00341  -0.13870  -0.21429
  29        4PX         0.00000  -0.00167  -0.01405   0.00058   0.00087
  30        4PY         0.00000  -0.01315   0.00422   0.01248   0.02206
  31        4PZ        -0.02527   0.00000   0.00000   0.00000   0.00000
  32        5D 0        0.00000   0.00093  -0.00061   0.00076   0.00172
  33        5D+1        0.00052   0.00000   0.00000   0.00000   0.00000
  34        5D-1       -0.00286   0.00000   0.00000   0.00000   0.00000
  35        5D+2        0.00000   0.00177   0.00022  -0.00071  -0.00017
  36        5D-2        0.00000  -0.00045  -0.00233  -0.00006  -0.00013
  37 3   H  1S          0.00000   0.00515   0.01238  -0.00150  -0.00234
  38        2S          0.00000   0.00993   0.02003   0.00379   0.00681
  39        3S          0.00000   0.00780   0.00295  -0.00115  -0.00242
  40        4PX         0.00000   0.00004   0.00212  -0.00163  -0.00239
  41        4PY         0.00000   0.00088  -0.00092   0.00284   0.00478
  42        4PZ        -0.00225   0.00000   0.00000   0.00000   0.00000
                          21        22        23        24        25
  21        2PX         0.06233
  22        2PY         0.00341   0.14495
  23        2PZ         0.00000   0.00000   0.10416
  24        3S          0.00936  -0.04051   0.00000   0.63694
  25        3PX         0.09318   0.00605   0.00000   0.00860   0.13936
  26        3PY         0.00472   0.19673   0.00000  -0.05427   0.00835
  27        3PZ         0.00000   0.00000   0.15319   0.00000   0.00000
  28        4S          0.00139  -0.12182   0.00000   0.58716  -0.00333
  29        4PX         0.06426   0.00154   0.00000  -0.00211   0.09618
  30        4PY        -0.00193   0.14574   0.00000  -0.07138  -0.00170
  31        4PZ         0.00000   0.00000   0.12707   0.00000   0.00000
  32        5D 0        0.00145  -0.00878   0.00000  -0.00620   0.00218
  33        5D+1        0.00000   0.00000  -0.00263   0.00000   0.00000
  34        5D-1        0.00000   0.00000   0.01439   0.00000   0.00000
  35        5D+2       -0.00318  -0.01645   0.00000  -0.00221  -0.00481
  36        5D-2        0.01022  -0.00142   0.00000   0.00066   0.01528
  37 3   H  1S         -0.05230   0.00553   0.00000   0.00401  -0.07822
  38        2S         -0.08710  -0.00249   0.00000  -0.02483  -0.13006
  39        3S         -0.01870  -0.05381   0.00000   0.00867  -0.02826
  40        4PX        -0.00839   0.00585   0.00000   0.00562  -0.01257
  41        4PY         0.00452   0.00071   0.00000  -0.01449   0.00688
  42        4PZ         0.00000   0.00000   0.01132   0.00000   0.00000
                          26        27        28        29        30
  26        3PY         0.26712
  27        3PZ         0.00000   0.22529
  28        4S         -0.16400   0.00000   0.62078
  29        4PX         0.00195   0.00000  -0.01597   0.06888
  30        4PY         0.19816   0.00000  -0.13571  -0.00727   0.15482
  31        4PZ         0.00000   0.18688   0.00000   0.00000   0.00000
  32        5D 0       -0.01192   0.00000   0.00026   0.00160  -0.00823
  33        5D+1        0.00000  -0.00387   0.00000   0.00000   0.00000
  34        5D-1        0.00000   0.02117   0.00000   0.00000   0.00000
  35        5D+2       -0.02237   0.00000   0.00831  -0.00301  -0.01588
  36        5D-2       -0.00190   0.00000   0.00129   0.01040  -0.00192
  37 3   H  1S          0.00682   0.00000  -0.01869  -0.04765  -0.00159
  38        2S         -0.00434   0.00000  -0.04504  -0.08053  -0.00940
  39        3S         -0.07346   0.00000   0.02705  -0.01449  -0.05905
  40        4PX         0.00788   0.00000  -0.00080  -0.00804   0.00479
  41        4PY         0.00087   0.00000  -0.01721   0.00599  -0.00067
  42        4PZ         0.00000   0.01665   0.00000   0.00000   0.00000
                          31        32        33        34        35
  31        4PZ         0.15502
  32        5D 0        0.00000   0.00072
  33        5D+1       -0.00321   0.00000   0.00007
  34        5D-1        0.01756   0.00000  -0.00036   0.00199
  35        5D+2        0.00000   0.00103   0.00000   0.00000   0.00207
  36        5D-2        0.00000   0.00040   0.00000   0.00000  -0.00028
  37 3   H  1S          0.00000  -0.00247   0.00000   0.00000   0.00136
  38        2S          0.00000  -0.00275   0.00000   0.00000   0.00399
  39        3S          0.00000   0.00252   0.00000   0.00000   0.00680
  40        4PX         0.00000  -0.00078   0.00000   0.00000  -0.00041
  41        4PY         0.00000   0.00020   0.00000   0.00000  -0.00017
  42        4PZ         0.01381   0.00000  -0.00029   0.00156   0.00000
                          36        37        38        39        40
  36        5D-2        0.00172
  37 3   H  1S         -0.00928   0.06366
  38        2S         -0.01505   0.09876   0.15704
  39        3S         -0.00267   0.02393   0.04084   0.03172
  40        4PX        -0.00156   0.01008   0.01504   0.00164   0.00186
  41        4PY         0.00068  -0.00114  -0.00200   0.00033  -0.00041
  42        4PZ         0.00000   0.00000   0.00000   0.00000   0.00000
                          41        42
  41        4PY         0.00116
  42        4PZ         0.00000   0.00123
    Full Mulliken population analysis:
                           1         2         3         4         5
   1 1   C  1S          0.66277
   2        2S          0.49874   0.50193
   3        2PX         0.00000   0.00000   0.04895
   4        2PY         0.00000   0.00000   0.00000   0.12029
   5        2PZ         0.00000   0.00000   0.00000   0.00000   0.05746
   6        3S         -0.03487  -0.07590   0.00000   0.00000   0.00000
   7        3PX         0.00000   0.00000   0.04412   0.00000   0.00000
   8        3PY         0.00000   0.00000   0.00000   0.09691   0.00000
   9        3PZ         0.00000   0.00000   0.00000   0.00000   0.05348
  10        4S         -0.01731  -0.03379   0.00000   0.00000   0.00000
  11        4PX         0.00000   0.00000   0.00720   0.00000   0.00000
  12        4PY         0.00000   0.00000   0.00000   0.01390   0.00000
  13        4PZ         0.00000   0.00000   0.00000   0.00000   0.01337
  14        5D 0        0.00000   0.00000   0.00000   0.00000   0.00000
  15        5D+1        0.00000   0.00000   0.00000   0.00000   0.00000
  16        5D-1        0.00000   0.00000   0.00000   0.00000   0.00000
  17        5D+2        0.00000   0.00000   0.00000   0.00000   0.00000
  18        5D-2        0.00000   0.00000   0.00000   0.00000   0.00000
  19 2   N  1S          0.00000   0.00000   0.00000  -0.00015   0.00000
  20        2S          0.00000   0.00000   0.00000  -0.00018   0.00000
  21        2PX         0.00000   0.00000   0.00047   0.00000   0.00000
  22        2PY        -0.00010  -0.00007   0.00000   0.00671   0.00000
  23        2PZ         0.00000   0.00000   0.00000   0.00000   0.00067
  24        3S         -0.00031  -0.00036   0.00000   0.01265   0.00000
  25        3PX         0.00000   0.00000   0.00566   0.00000   0.00000
  26        3PY        -0.00266  -0.00444   0.00000   0.03551   0.00000
  27        3PZ         0.00000   0.00000   0.00000   0.00000   0.00800
  28        4S          0.00172   0.00412   0.00000   0.00692   0.00000
  29        4PX         0.00000   0.00000   0.00661   0.00000   0.00000
  30        4PY        -0.00193  -0.00317   0.00000   0.01042   0.00000
  31        4PZ         0.00000   0.00000   0.00000   0.00000   0.01175
  32        5D 0       -0.00013  -0.00019   0.00000   0.00104   0.00000
  33        5D+1        0.00000   0.00000   0.00000   0.00000   0.00000
  34        5D-1        0.00000   0.00000   0.00000   0.00000   0.00137
  35        5D+2       -0.00041  -0.00062   0.00000   0.00282   0.00000
  36        5D-2        0.00000   0.00000   0.00115   0.00000   0.00000
  37 3   H  1S         -0.00008  -0.00009   0.00291  -0.00011   0.00000
  38        2S         -0.00094  -0.00160   0.01168  -0.00091   0.00000
  39        3S          0.00009   0.00001   0.00124  -0.00117   0.00000
  40        4PX        -0.00025  -0.00034   0.00158   0.00047   0.00000
  41        4PY        -0.00009  -0.00016  -0.00027   0.00011   0.00000
  42        4PZ         0.00000   0.00000   0.00000   0.00000   0.00048
                           6         7         8         9        10
   6        3S          0.54354
   7        3PX         0.00000   0.10059
   8        3PY         0.00000   0.00000   0.19784
   9        3PZ         0.00000   0.00000   0.00000   0.12576
  10        4S          0.39127   0.00000   0.00000   0.00000   0.73051
  11        4PX         0.00000   0.03054   0.00000   0.00000   0.00000
  12        4PY         0.00000   0.00000   0.05370   0.00000   0.00000
  13        4PZ         0.00000   0.00000   0.00000   0.05867   0.00000
  14        5D 0        0.00000   0.00000   0.00000   0.00000   0.00000
  15        5D+1        0.00000   0.00000   0.00000   0.00000   0.00000
  16        5D-1        0.00000   0.00000   0.00000   0.00000   0.00000
  17        5D+2        0.00000   0.00000   0.00000   0.00000   0.00000
  18        5D-2        0.00000   0.00000   0.00000   0.00000   0.00000
  19 2   N  1S         -0.00023   0.00000  -0.00254   0.00000   0.00231
  20        2S         -0.00027   0.00000  -0.00420   0.00000   0.00401
  21        2PX         0.00000   0.00498   0.00000   0.00000   0.00000
  22        2PY         0.01073   0.00000   0.02492   0.00000  -0.00289
  23        2PZ         0.00000   0.00000   0.00000   0.00743   0.00000
  24        3S          0.00046   0.00000   0.04691   0.00000  -0.05972
  25        3PX         0.00000   0.02658   0.00000   0.00000   0.00000
  26        3PY         0.05097   0.00000   0.07511   0.00000  -0.01531
  27        3PZ         0.00000   0.00000   0.00000   0.03910   0.00000
  28        4S         -0.07451   0.00000   0.02240   0.00000  -0.16000
  29        4PX         0.00000   0.02912   0.00000   0.00000   0.00000
  30        4PY         0.02969   0.00000   0.02316   0.00000  -0.05553
  31        4PZ         0.00000   0.00000   0.00000   0.05420   0.00000
  32        5D 0        0.00098   0.00000   0.00086   0.00000  -0.00015
  33        5D+1        0.00000   0.00000   0.00000   0.00000   0.00000
  34        5D-1        0.00000   0.00000   0.00000   0.00424   0.00000
  35        5D+2        0.00319   0.00000   0.00236   0.00000  -0.00011
  36        5D-2        0.00000   0.00343   0.00000   0.00000   0.00000
  37 3   H  1S          0.00757   0.02088  -0.00092   0.00000   0.00568
  38        2S          0.02010   0.05068  -0.00389   0.00000   0.01263
  39        3S          0.00089   0.00652  -0.00543   0.00000   0.03934
  40        4PX         0.00303   0.00377   0.00118   0.00000  -0.00057
  41        4PY         0.00207  -0.00073   0.00101   0.00000   0.00211
  42        4PZ         0.00000   0.00000   0.00000   0.00253   0.00000
                          11        12        13        14        15
  11        4PX         0.02294
  12        4PY         0.00000   0.04217
  13        4PZ         0.00000   0.00000   0.06411
  14        5D 0        0.00000   0.00000   0.00000   0.00077
  15        5D+1        0.00000   0.00000   0.00000   0.00000   0.00015
  16        5D-1        0.00000   0.00000   0.00000   0.00000   0.00000
  17        5D+2        0.00000   0.00000   0.00000   0.00000   0.00000
  18        5D-2        0.00000   0.00000   0.00000   0.00000   0.00000
  19 2   N  1S          0.00000  -0.00008   0.00000  -0.00021   0.00000
  20        2S          0.00000  -0.00041   0.00000  -0.00032   0.00000
  21        2PX         0.00267   0.00000   0.00000   0.00000   0.00000
  22        2PY         0.00000   0.00118   0.00000   0.00088   0.00000
  23        2PZ         0.00000   0.00000   0.00611   0.00000   0.00000
  24        3S          0.00000   0.00908   0.00000   0.00192   0.00000
  25        3PX         0.01467   0.00000   0.00000   0.00000   0.00000
  26        3PY         0.00000   0.00332   0.00000   0.00136   0.00000
  27        3PZ         0.00000   0.00000   0.03321   0.00000   0.00000
  28        4S          0.00000   0.01174   0.00000   0.00033   0.00000
  29        4PX         0.02232   0.00000   0.00000   0.00000   0.00000
  30        4PY         0.00000  -0.00532   0.00000  -0.00026   0.00000
  31        4PZ         0.00000   0.00000   0.06318   0.00000   0.00000
  32        5D 0        0.00000  -0.00007   0.00000   0.00009   0.00000
  33        5D+1        0.00000   0.00000   0.00000   0.00000   0.00001
  34        5D-1        0.00000   0.00000   0.00139   0.00000   0.00000
  35        5D+2        0.00000  -0.00020   0.00000  -0.00002   0.00000
  36        5D-2        0.00075   0.00000   0.00000   0.00000   0.00000
  37 3   H  1S          0.01138  -0.00151   0.00000   0.00050   0.00000
  38        2S          0.03253  -0.00398   0.00000   0.00047   0.00000
  39        3S          0.00442  -0.00504   0.00000  -0.00005   0.00000
  40        4PX         0.00013   0.00007   0.00000   0.00012   0.00000
  41        4PY        -0.00015   0.00098   0.00000  -0.00002   0.00000
  42        4PZ         0.00000   0.00000   0.00220   0.00000   0.00013
                          16        17        18        19        20
  16        5D-1        0.00412
  17        5D+2        0.00000   0.00297
  18        5D-2        0.00000   0.00000   0.00317
  19 2   N  1S          0.00000  -0.00073   0.00000   0.65324
  20        2S          0.00000  -0.00114   0.00000   0.50892   0.51518
  21        2PX         0.00000   0.00000   0.00189   0.00000   0.00000
  22        2PY         0.00000   0.00252   0.00000   0.00000   0.00000
  23        2PZ         0.00285   0.00000   0.00000   0.00000   0.00000
  24        3S          0.00000   0.00748   0.00000  -0.04328  -0.08725
  25        3PX         0.00000   0.00000   0.00735   0.00000   0.00000
  26        3PY         0.00000   0.00393   0.00000   0.00000   0.00000
  27        3PZ         0.01090   0.00000   0.00000   0.00000   0.00000
  28        4S          0.00000   0.00229   0.00000  -0.02197  -0.03855
  29        4PX         0.00000   0.00000   0.00384   0.00000   0.00000
  30        4PY         0.00000  -0.00085   0.00000   0.00000   0.00000
  31        4PZ         0.00691   0.00000   0.00000   0.00000   0.00000
  32        5D 0        0.00000  -0.00002   0.00000   0.00000   0.00000
  33        5D+1        0.00000   0.00000   0.00000   0.00000   0.00000
  34        5D-1        0.00114   0.00000   0.00000   0.00000   0.00000
  35        5D+2        0.00000   0.00019   0.00000   0.00000   0.00000
  36        5D-2        0.00000   0.00000   0.00093   0.00000   0.00000
  37 3   H  1S          0.00000   0.00108   0.00247   0.00000   0.00000
  38        2S          0.00000   0.00167   0.00319   0.00012   0.00023
  39        3S          0.00000   0.00027   0.00010  -0.00006  -0.00014
  40        4PX         0.00000   0.00000   0.00054  -0.00003  -0.00004
  41        4PY         0.00000   0.00025   0.00014  -0.00003  -0.00006
  42        4PZ         0.00027   0.00000   0.00000   0.00000   0.00000
                          21        22        23        24        25
  21        2PX         0.06233
  22        2PY         0.00000   0.14495
  23        2PZ         0.00000   0.00000   0.10416
  24        3S          0.00000   0.00000   0.00000   0.63694
  25        3PX         0.05777   0.00000   0.00000   0.00000   0.13936
  26        3PY         0.00000   0.12197   0.00000   0.00000   0.00000
  27        3PZ         0.00000   0.00000   0.09498   0.00000   0.00000
  28        4S          0.00000   0.00000   0.00000   0.45026   0.00000
  29        4PX         0.01348   0.00000   0.00000   0.00000   0.06179
  30        4PY         0.00000   0.03057   0.00000   0.00000   0.00000
  31        4PZ         0.00000   0.00000   0.02665   0.00000   0.00000
  32        5D 0        0.00000   0.00000   0.00000   0.00000   0.00000
  33        5D+1        0.00000   0.00000   0.00000   0.00000   0.00000
  34        5D-1        0.00000   0.00000   0.00000   0.00000   0.00000
  35        5D+2        0.00000   0.00000   0.00000   0.00000   0.00000
  36        5D-2        0.00000   0.00000   0.00000   0.00000   0.00000
  37 3   H  1S          0.00062   0.00004   0.00000   0.00021   0.00924
  38        2S          0.00572  -0.00011   0.00000  -0.00541   0.03211
  39        3S          0.00068  -0.00128   0.00000   0.00270   0.00403
[...]
 Electronic spatial extent (au):  <R**2>=             47.4230
 Charge=              0.0000 electrons
 Dipole moment (field-independent basis, Debye):
    X=             -1.2452    Y=             -0.0119    Z=              0.0000  Tot=              1.2453
 Quadrupole moment (field-independent basis, Debye-Ang):
   XX=             -9.6366   YY=            -14.4759   ZZ=            -12.0723
   XY=             -0.2064   XZ=              0.0000   YZ=              0.0000
 Traceless Quadrupole moment (field-independent basis, Debye-Ang):
   XX=              2.4250   YY=             -2.4144   ZZ=             -0.0107
   XY=             -0.2064   XZ=              0.0000   YZ=              0.0000
 Octapole moment (field-independent basis, Debye-Ang**2):
  XXX=             -2.2358  YYY=             -3.4022  ZZZ=              0.0000  XYY=             -0.1057
  XXY=             -0.7533  XXZ=              0.0000  XZZ=             -0.2137  YZZ=             -0.7543
  YYZ=              0.0000  XYZ=              0.0000
 Hexadecapole moment (field-independent basis, Debye-Ang**3):
 XXXX=            -12.6984 YYYY=            -43.1660 ZZZZ=            -11.9170 XXXY=             -0.1273
 XXXZ=              0.0000 YYYX=              0.2061 YYYZ=              0.0000 ZZZX=              0.0000
 ZZZY=              0.0000 XXYY=             -9.0729 XXZZ=             -4.5284 YYZZ=             -8.6624
 XXYZ=              0.0000 YYXZ=              0.0000 ZZXY=              0.0812
 N-N= 2.412825458845D+01 E-N=-2.660465408565D+02  KE= 9.307167353924D+01
 Symmetry A'   KE= 9.010783682037D+01
 Symmetry A"   KE= 2.963836718873D+00
 Orbital energies and kinetic energies (alpha):
                                 1                 2
   1         O               -14.386188         22.051576
   2         O               -10.238620         15.953667
   3         O                -1.002631          2.130387
   4         O                -0.526741          1.457383
   5         O                -0.463732          1.906027
   6         O                -0.395367          1.481918
   7         O                -0.343873          1.554878
   8         V                -0.057258          1.673272
   9         V                -0.000385          1.610297
  10         V                 0.026990          0.914103
  11         V                 0.217120          0.858370
  12         V                 0.300022          0.953635
  13         V                 0.395254          1.349796
  14         V                 0.406639          1.482433
  15         V                 0.525473          1.630809
  16         V                 0.539446          1.828525
  17         V                 0.630427          1.922807
  18         V                 0.637558          1.988288
  19         V                 0.725334          3.213051
  20         V                 0.995443          1.865486
  21         V                 1.030555          3.291447
  22         V                 1.258772          2.386961
  23         V                 1.353708          2.491220
  24         V                 1.413003          2.465613
  25         V                 1.549179          2.578418
  26         V                 1.712383          2.577139
  27         V                 1.882178          3.667514
  28         V                 2.021996          3.300822
  29         V                 2.149585          4.109680
  30         V                 2.224341          3.508420
  31         V                 2.380685          4.427875
  32         V                 2.434732          4.798986
  33         V                 2.694446          4.526653
  34         V                 2.730980          5.419975
  35         V                 2.838464          5.391214
  36         V                 2.983167          6.113426
  37         V                 3.146560          6.112959
  38         V                 3.714078          8.789457
  39         V                 3.856209          8.736513
  40         V                 4.319635          9.432114
  41         V                23.912808         60.463932
  42         V                35.515901         89.002211
 Total kinetic energy from orbitals= 9.307167353924D+01
  Exact polarizability:  14.175   0.211  18.224   0.000   0.000  10.334
 Approx polarizability:  21.099   0.668  34.046   0.000   0.000  14.037
 No NMR shielding tensors so no spin-rotation constants.
 Leave Link  601 at Thu Apr 14 13:06:40 2016, MaxMem=   104857600 cpu:         0.1
 (Enter /home/projets/algogen/g09.D01/g09/l701.exe)
 Compute integral second derivatives.
 ... and contract with generalized density number  0.
 Leave Link  701 at Thu Apr 14 13:06:40 2016, MaxMem=   104857600 cpu:         0.2
 (Enter /home/projets/algogen/g09.D01/g09/l702.exe)
 L702 exits ... SP integral derivatives will be done elsewhere.
 Leave Link  702 at Thu Apr 14 13:06:40 2016, MaxMem=   104857600 cpu:         0.0
 (Enter /home/projets/algogen/g09.D01/g09/l703.exe)
 Compute integral second derivatives, UseDBF=F ICtDFT=           0.
 Integral derivatives from FoFJK, PRISM(SPDF).
 Calling FoFJK, ICntrl=    100127 FMM=F ISym2X=1 I1Cent= 0 IOpClX= 0 NMat=1 NMatS=1 NMatT=0.
 FoFJK:  IHMeth= 1 ICntrl=  100127 DoSepK=F KAlg= 0 I1Cent=   0 FoldK=F
 IRaf=         0 NMat=   1 IRICut=       1 DoRegI=T DoRafI=F ISym2E= 1.
 FoFCou: FMM=F IPFlag=           0 FMFlag=      100000 FMFlg1=         800
         NFxFlg=           0 DoJE=F BraDBF=F KetDBF=F FulRan=T
         wScrn=  0.000000 ICntrl=  100127 IOpCl=  0 I1Cent=           0 NGrid=           0
         NMat0=    1 NMatS0=      1 NMatT0=    0 NMatD0=    1 NMtDS0=    0 NMtDT0=    0
 Petite list used in FoFCou.
 Leave Link  703 at Thu Apr 14 13:06:42 2016, MaxMem=   104857600 cpu:         1.5
 (Enter /home/projets/algogen/g09.D01/g09/l716.exe)
 Dipole        =-4.89914127D-01-4.68135484D-03-4.65503790D-33
 Polarizability= 1.41753610D+01 2.11452875D-01 1.82243660D+01
                -7.26170549D-11-1.76062555D-10 1.03343021D+01
 Full mass-weighted force constant matrix:
 Low frequencies ----1075.7854 -147.7865   -0.0008   -0.0006    0.0001   36.0032
 Low frequencies ---  177.6200 2055.3734 2551.4481
 ******    1 imaginary frequencies (negative Signs) ****** 
 Diagonal vibrational polarizability:
        0.6542456       1.3209547       0.0000000
 Harmonic frequencies (cm**-1), IR intensities (KM/Mole), Raman scattering
 activities (A**4/AMU), depolarization ratios for plane and unpolarized
 incident light, reduced masses (AMU), force constants (mDyne/A),
 and normal coordinates:
                      1                      2                      3
                     A'                     A'                     A'
 Frequencies --  -1075.7854              2055.3673              2551.4303
 Red. masses --      1.1663                11.7284                 1.0588
 Frc consts  --      0.7953                29.1922                 4.0611
 IR Inten    --     56.0865                15.6025               138.2749
  Atom  AN      X      Y      Z        X      Y      Z        X      Y      Z
     1   6     0.07   0.05   0.00    -0.03   0.71   0.00     0.06   0.02   0.00
     2   7    -0.07   0.02   0.00     0.01  -0.63   0.00     0.02  -0.01   0.00
     3   1     0.17  -0.98   0.00     0.18   0.25   0.00    -0.99  -0.12   0.00

 -------------------
 - Thermochemistry -
 -------------------
 Temperature   298.150 Kelvin.  Pressure   1.00000 Atm.
 Atom     1 has atomic number  6 and mass  12.00000
 Atom     2 has atomic number  7 and mass  14.00307
 Atom     3 has atomic number  1 and mass   1.00783
 Molecular mass:    27.01090 amu.
 Principal axes and moments of inertia in atomic units:
                           1         2         3
     Eigenvalues --     4.34654  32.59174  36.93829
           X           -0.02624   0.99966   0.00000
           Y            0.99966   0.02624   0.00000
           Z            0.00000   0.00000   1.00000
 This molecule is an asymmetric top.
 Rotational symmetry number  1.
 Rotational temperatures (Kelvin)     19.92706     2.65754     2.34482
 Rotational constants (GHZ):         415.21305    55.37419    48.85828
    1 imaginary frequencies ignored.
 Zero-point vibrational energy      27554.8 (Joules/Mol)
                                    6.58575 (Kcal/Mol)
 Vibrational temperatures:   2957.21  3670.93
          (Kelvin)
 
 Zero-point correction=                           0.010495 (Hartree/Particle)
 Thermal correction to Energy=                    0.013328
 Thermal correction to Enthalpy=                  0.014272
 Thermal correction to Gibbs Free Energy=        -0.010496
 Sum of electronic and zero-point Energies=            -93.365160
 Sum of electronic and thermal Energies=               -93.362327
 Sum of electronic and thermal Enthalpies=             -93.361383
 Sum of electronic and thermal Free Energies=          -93.386151
 
                     E (Thermal)             CV                S
                      KCal/Mol        Cal/Mol-Kelvin    Cal/Mol-Kelvin
 Total                    8.364              5.973             52.128
 Electronic               0.000              0.000              0.000
 Translational            0.889              2.981             35.816
 Rotational               0.889              2.981             16.311
 Vibrational              6.586              0.011              0.001
                       Q            Log10(Q)             Ln(Q)
 Total Bot       0.672383D+05          4.827617         11.115999
 Total V=0       0.451854D+10          9.654998         22.231454
 Vib (Bot)       0.148814D-04         -4.827357        -11.115401
 Vib (V=0)       0.100005D+01          0.000023          0.000054
 Electronic      0.100000D+01          0.000000          0.000000
 Translational   0.551777D+07          6.741764         15.523485
 Rotational      0.818862D+03          2.913211          6.707915
 
                                                           point 2 forward
                                                             IR Spectrum
 
     2                        2                                                                                                      
     5                        0                                                                                                      
     5                        5                                                                                                      
     1                        5                                                                                                      
 
     X                        X                                                                                                      
     X                        X                                                                                                      
     X                                                                                                                               
     X                                                                                                                               
     X                                                                                                                               
     X                                                                                                                               
     X                                                                                                                               
     X                                                                                                                               
     X                                                                                                                               
     X                                                                                                                               
     X                                                                                                                               
     X                                                                                                                               
     X                                                                                                                               
     X                                                                                                                               
     X                                                                                                                               
     X                                                                                                                               
     X                                                                                                                               
     X                                                                                                                               
     X                                                                                                                               
     X                                                                                                                               
 
 ***** Axes restored to original set *****
 -------------------------------------------------------------------
 Center     Atomic                   Forces (Hartrees/Bohr)
 Number     Number              X              Y              Z
 -------------------------------------------------------------------
      1        6          -0.004660751    0.000000000   -0.003628049
      2        7           0.005549779    0.000000000   -0.001890560
      3        1          -0.000889028    0.000000000    0.005518608
 -------------------------------------------------------------------
 Cartesian Forces:  Max     0.005549779 RMS     0.003341739
 Z-matrix is all fixed cartesians, so copy forces.
 Force constants in Cartesian coordinates: 
                1             2             3             4             5 
      1  0.999375D-01
      2  0.000000D+00 -0.298605D-02
      3 -0.132977D-01  0.000000D+00  0.991990D+00
      4  0.759921D-01  0.000000D+00  0.482855D-01 -0.203355D-01
      5  0.000000D+00  0.811063D-03  0.000000D+00  0.000000D+00  0.185170D-02
      6  0.362166D-02  0.000000D+00 -0.103959D+01 -0.419809D-02  0.000000D+00
      7 -0.175930D+00  0.000000D+00 -0.349878D-01 -0.556566D-01  0.000000D+00
      8  0.000000D+00  0.217499D-02  0.000000D+00  0.000000D+00 -0.266276D-02
      9  0.967602D-02  0.000000D+00  0.476041D-01 -0.440874D-01  0.000000D+00
                6             7             8             9 
      6  0.105477D+01
      7  0.576428D-03  0.231586D+00
      8  0.000000D+00  0.000000D+00  0.487774D-03
      9 -0.151795D-01  0.344114D-01  0.000000D+00 -0.324245D-01
 Leave Link  716 at Thu Apr 14 13:06:42 2016, MaxMem=   104857600 cpu:         0.0
 (Enter /home/projets/algogen/g09.D01/g09/l103.exe)

 GradGradGradGradGradGradGradGradGradGradGradGradGradGradGradGradGradGrad
 Berny optimization.
 Search for a local minimum.
 Step number   1 out of a maximum of    2
 All quantities printed in internal units (Hartrees-Bohrs-Radians)
 Second derivative matrix not updated -- analytic derivatives used.
 The second derivative matrix:
                          X1        Y1        Z1        X2        Y2
           X1           0.09994
           Y1           0.00000  -0.00299
           Z1          -0.01330   0.00000   0.99199
           X2           0.07599   0.00000   0.04829  -0.02034
           Y2           0.00000   0.00081   0.00000   0.00000   0.00185
           Z2           0.00362   0.00000  -1.03959  -0.00420   0.00000
           X3          -0.17593   0.00000  -0.03499  -0.05566   0.00000
           Y3           0.00000   0.00217   0.00000   0.00000  -0.00266
           Z3           0.00968   0.00000   0.04760  -0.04409   0.00000
                          Z2        X3        Y3        Z3
           Z2           1.05477
           X3           0.00058   0.23159
           Y3           0.00000   0.00000   0.00049
           Z3          -0.01518   0.03441   0.00000  -0.03242
 ITU=  0
     Eigenvalues ---   -0.09569   0.33365   2.06092
 Eigenvalue     1 is  -9.57D-02 should be greater than     0.000000 Eigenvector:
                          Z3        X2        X1        X3        Z1
   1                    0.84699   0.33102  -0.27556  -0.20081  -0.18889
                          Z2        Y1        Y2        Y3
   1                   -0.14525   0.00000   0.00000   0.00000
 Angle between quadratic step and forces=  26.52 degrees.
 ClnCor:  largest displacement from symmetrization is 1.43D-17 for atom     1.
 Linear search not attempted -- first point.
 ClnCor:  largest displacement from symmetrization is 8.90D-16 for atom     3.
 TrRot=  0.005823  0.000000 -0.008507  0.000000  0.012118  0.000000
 Variable       Old X    -DE/DX   Delta X   Delta X   Delta X     New X
                                 (Linear)    (Quad)   (Total)
    X1       -0.08814  -0.00466   0.00000  -0.02667  -0.03551  -0.12366
    Y1        0.00000   0.00000   0.00000   0.00000   0.00000   0.00000
    Z1       -1.19262  -0.00363   0.00000  -0.01808  -0.02511  -1.21772
    X2       -0.07125   0.00555   0.00000   0.03065   0.04901  -0.02224
    Y2        0.00000   0.00000   0.00000   0.00000   0.00000   0.00000
    Z2        1.04807  -0.00189   0.00000  -0.01332  -0.02141   1.02666
    X3        2.03950  -0.00089   0.00000  -0.01575  -0.01350   2.02600
    Y3        0.00000   0.00000   0.00000   0.00000   0.00000   0.00000
    Z3       -0.36199   0.00552   0.00000   0.07953   0.04652  -0.31547
         Item               Value     Threshold  Converged?
 Maximum Force            0.005550     0.000450     NO 
 RMS     Force            0.003342     0.000300     NO 
 Maximum Displacement     0.049014     0.001800     NO 
 RMS     Displacement     0.028084     0.001200     NO 
 Predicted change in Energy=-1.251837D-03
 GradGradGradGradGradGradGradGradGradGradGradGradGradGradGradGradGradGrad

 Leave Link  103 at Thu Apr 14 13:06:42 2016, MaxMem=   104857600 cpu:         0.0
 (Enter /home/projets/algogen/g09.D01/g09/l9999.exe)

 Test job not archived.
 1\1\GINC-ROMEO173\Freq\RB3LYP\6-311G(d,p)\C1H1N1\ROOT\14-Apr-2016\0\\#
 P B3LYP 6-311G** FREQ # POP=full GFINPUT IOP(6/7=3)\\point 2 forward\\
 0,1\C,-0.046642,0.,-0.631106\N,-0.037706,0.,0.554616\H,1.079257,0.,-0.
 191556\\Version=ES64L-G09RevD.01\State=1-A'\HF=-93.3756555\RMSD=3.357e
 -09\RMSF=3.342e-03\ZeroPoint=0.0104951\Thermal=0.0133281\Dipole=0.4899
 355,0.,0.0009892\DipoleDeriv=-0.2602922,0.,0.0480108,0.,-0.1457845,0.,
 0.2247443,0.,-0.0241335,-0.1093331,0.,0.0430623,0.,-0.0851527,0.,-0.25
 54651,0.,-0.2176775,0.3696253,0.,-0.0910731,0.,0.2309371,0.,0.0307208,
 0.,0.2418109\Polar=14.1787779,0.,10.3343021,0.2419418,0.,18.2209491\PG
 =CS [SG(C1H1N1)]\NImag=1\\0.09993750,0.,-0.00298605,-0.01329768,0.,0.9
 9198965,0.07599206,0.,0.04828553,-0.02033547,0.,0.00081106,0.,0.,0.001
 85170,0.00362166,0.,-1.03959372,-0.00419809,0.,1.05477327,-0.17592956,
 0.,-0.03498785,-0.05565659,0.,0.00057643,0.23158615,0.,0.00217499,0.,0
 .,-0.00266276,0.,0.,0.00048777,0.00967602,0.,0.04760407,-0.04408744,0.
 ,-0.01517955,0.03441142,0.,-0.03242452\\0.00466075,0.,0.00362805,-0.00
 554978,0.,0.00189056,0.00088903,0.,-0.00551861\\\@


 ANYONE WHO IS NOT SHOCKED BY QUANTUM THEORY HAS
 NOT UNDERSTOOD IT. -- NIELS BOHR(1885-1962)
 Job cpu time:       0 days  0 hours  0 minutes  5.8 seconds.
 File lengths (MBytes):  RWF=      5 Int=      0 D2E=      0 Chk=      1 Scr=      1
 Normal termination of Gaussian 09 at Thu Apr 14 13:06:42 2016.
************
total 116
drwxrwxr-x 2 henon henon   4096 14 avril 13:06 .
drwxrwxr-x 3 henon henon   4096 14 avril 13:06 ..
-rw-r--r-- 1 henon henon    270 14 avril 13:06 for2.inp
-rw-rw-r-- 1 henon henon 104642 14 avril 13:06 for2.out
Run on 1 cores
romeo173
************
