total 12
drwxrwxr-x 2 henon henon 4096 14 avril 13:06 .
drwxrwxr-x 3 henon henon 4096 14 avril 13:06 ..
-rw-r--r-- 1 henon henon  265 14 avril 13:06 for3.inp
-rw-rw-r-- 1 henon henon    0 14 avril 13:06 for3.out
 Entering Gaussian System, Link 0=g09
 Initial command:
 /home/projets/algogen/g09.D01/g09/l1.exe "/scratch_l/henon/for3_7755/Gau-7769.inp" -scrdir="/scratch_l/henon/for3_7755/"
 Entering Link 1 = /home/projets/algogen/g09.D01/g09/l1.exe PID=      7770.
  
 Copyright (c) 1988,1990,1992,1993,1995,1998,2003,2009,2013,
            Gaussian, Inc.  All Rights Reserved.
  
 This is part of the Gaussian(R) 09 program.  It is based on
 the Gaussian(R) 03 system (copyright 2003, Gaussian, Inc.),
 the Gaussian(R) 98 system (copyright 1998, Gaussian, Inc.),
 the Gaussian(R) 94 system (copyright 1995, Gaussian, Inc.),
 the Gaussian 92(TM) system (copyright 1992, Gaussian, Inc.),
 the Gaussian 90(TM) system (copyright 1990, Gaussian, Inc.),
 the Gaussian 88(TM) system (copyright 1988, Gaussian, Inc.),
 the Gaussian 86(TM) system (copyright 1986, Carnegie Mellon
 University), and the Gaussian 82(TM) system (copyright 1983,
 Carnegie Mellon University). Gaussian is a federally registered
 trademark of Gaussian, Inc.
  
 This software contains proprietary and confidential information,
 including trade secrets, belonging to Gaussian, Inc.
  
 This software is provided under written license and may be
 used, copied, transmitted, or stored only in accord with that
 written license.
  
 The following legend is applicable only to US Government
 contracts under FAR:
  
                    RESTRICTED RIGHTS LEGEND
  
 Use, reproduction and disclosure by the US Government is
 subject to restrictions as set forth in subparagraphs (a)
 and (c) of the Commercial Computer Software - Restricted
 Rights clause in FAR 52.227-19.
  
 Gaussian, Inc.
 340 Quinnipiac St., Bldg. 40, Wallingford CT 06492
  
  
 ---------------------------------------------------------------
 Warning -- This program may not be used in any manner that
 competes with the business of Gaussian, Inc. or will provide
 assistance to any competitor of Gaussian, Inc.  The licensee
 of this program is prohibited from giving any competitor of
 Gaussian, Inc. access to this program.  By using this program,
 the user acknowledges that Gaussian, Inc. is engaged in the
 business of creating and licensing software in the field of
 computational chemistry and represents and warrants to the
 licensee that it is not a competitor of Gaussian, Inc. and that
 it will not use this program in any manner prohibited above.
 ---------------------------------------------------------------
  

 Cite this work as:
 Gaussian 09, Revision D.01,
 M. J. Frisch, G. W. Trucks, H. B. Schlegel, G. E. Scuseria, 
 M. A. Robb, J. R. Cheeseman, G. Scalmani, V. Barone, B. Mennucci, 
 G. A. Petersson, H. Nakatsuji, M. Caricato, X. Li, H. P. Hratchian, 
 A. F. Izmaylov, J. Bloino, G. Zheng, J. L. Sonnenberg, M. Hada, 
 M. Ehara, K. Toyota, R. Fukuda, J. Hasegawa, M. Ishida, T. Nakajima, 
 Y. Honda, O. Kitao, H. Nakai, T. Vreven, J. A. Montgomery, Jr., 
 J. E. Peralta, F. Ogliaro, M. Bearpark, J. J. Heyd, E. Brothers, 
 K. N. Kudin, V. N. Staroverov, T. Keith, R. Kobayashi, J. Normand, 
 K. Raghavachari, A. Rendell, J. C. Burant, S. S. Iyengar, J. Tomasi, 
 M. Cossi, N. Rega, J. M. Millam, M. Klene, J. E. Knox, J. B. Cross, 
 V. Bakken, C. Adamo, J. Jaramillo, R. Gomperts, R. E. Stratmann, 
 O. Yazyev, A. J. Austin, R. Cammi, C. Pomelli, J. W. Ochterski, 
 R. L. Martin, K. Morokuma, V. G. Zakrzewski, G. A. Voth, 
 P. Salvador, J. J. Dannenberg, S. Dapprich, A. D. Daniels, 
 O. Farkas, J. B. Foresman, J. V. Ortiz, J. Cioslowski, 
 and D. J. Fox, Gaussian, Inc., Wallingford CT, 2013.
 
 ******************************************
 Gaussian 09:  ES64L-G09RevD.01 24-Apr-2013
                14-Apr-2016 
 ******************************************
 %NPROC=1
 Will use up to    1 processors via shared memory.
 %MEM=800MB
 ----------------------------------------------------
 #P B3LYP 6-311G** FREQ # POP=full GFINPUT IOP(6/7=3)
 ----------------------------------------------------
 1/10=4,30=1,38=1/1,3;
 2/12=2,17=6,18=5,40=1/2;
 3/5=4,6=6,7=101,11=2,16=1,24=10,25=1,30=1,71=2,74=-5,140=1/1,2,3;
 4//1;
 5/5=2,38=5,98=1/2;
 8/6=4,10=90,11=11/1;
 11/6=1,8=1,9=11,15=111,16=1/1,2,10;
 10/6=1/2;
 6/7=3,18=1,28=1/1;
 7/8=1,10=1,25=1/1,2,3,16;
 1/10=4,30=1/3;
 99//99;
 Leave Link    1 at Thu Apr 14 13:06:37 2016, MaxMem=   104857600 cpu:         0.0
 (Enter /home/projets/algogen/g09.D01/g09/l101.exe)
 ---------------
 point 3 forward
 ---------------
 Symbolic Z-matrix:
 Charge =  0 Multiplicity = 1
 6                    -0.04958   0.       -0.63339 
 7                    -0.0347    0.        0.55358 
 1                     1.07249   0.       -0.15002 
 
 NAtoms=      3 NQM=        3 NQMF=       0 NMMI=      0 NMMIF=      0
                NMic=       0 NMicF=      0.
                    Isotopes and Nuclear Properties:
 (Nuclear quadrupole moments (NQMom) in fm**2, nuclear magnetic moments (NMagM)
  in nuclear magnetons)

  Atom         1           2           3
 IAtWgt=          12          14           1
 AtmWgt=  12.0000000  14.0030740   1.0078250
 NucSpn=           0           2           1
 AtZEff=   0.0000000   0.0000000   0.0000000
 NQMom=    0.0000000   2.0440000   0.0000000
 NMagM=    0.0000000   0.4037610   2.7928460
 AtZNuc=   6.0000000   7.0000000   1.0000000
 Leave Link  101 at Thu Apr 14 13:06:37 2016, MaxMem=   104857600 cpu:         0.1
 (Enter /home/projets/algogen/g09.D01/g09/l103.exe)

 GradGradGradGradGradGradGradGradGradGradGradGradGradGradGradGradGradGrad
 Berny optimization.
 Initialization pass.
 Trust Radius=3.00D-01 FncErr=1.00D-07 GrdErr=1.00D-07
 Number of steps in this run=      2 maximum allowed number of steps=      2.
 GradGradGradGradGradGradGradGradGradGradGradGradGradGradGradGradGradGrad

 Leave Link  103 at Thu Apr 14 13:06:37 2016, MaxMem=   104857600 cpu:         0.0
 (Enter /home/projets/algogen/g09.D01/g09/l202.exe)
                          Input orientation:                          
 ---------------------------------------------------------------------
 Center     Atomic      Atomic             Coordinates (Angstroms)
 Number     Number       Type             X           Y           Z
 ---------------------------------------------------------------------
      1          6           0       -0.049584    0.000000   -0.633387
      2          7           0       -0.034698    0.000000    0.553581
      3          1           0        1.072487    0.000000   -0.150020
 ---------------------------------------------------------------------
                    Distance matrix (angstroms):
                    1          2          3
     1  C    0.000000
     2  N    1.187061   0.000000
     3  H    1.221756   1.311836   0.000000
 Stoichiometry    CHN
 Framework group  CS[SG(CHN)]
 Deg. of freedom     3
 Full point group                 CS      NOp   2
 Largest Abelian subgroup         CS      NOp   2
 Largest concise Abelian subgroup C1      NOp   1
                         Standard orientation:                         
 ---------------------------------------------------------------------
 Center     Atomic      Atomic             Coordinates (Angstroms)
 Number     Number       Type             X           Y           Z
 ---------------------------------------------------------------------
      1          6           0        0.079709    0.629059    0.000000
      2          7           0        0.079709   -0.558002    0.000000
      3          1           0       -1.036213    0.131659    0.000000
 ---------------------------------------------------------------------
 Rotational constants (GHZ):    419.3253542     55.3629370     48.9059528
 Leave Link  202 at Thu Apr 14 13:06:37 2016, MaxMem=   104857600 cpu:         0.0
 (Enter /home/projets/algogen/g09.D01/g09/l301.exe)
 Standard basis: 6-311G(d,p) (5D, 7F)
 Ernie: Thresh=  0.10000D-02 Tol=  0.10000D-05 Strict=F.
 AO basis set in the form of general basis input (Overlap normalization):
      1 0
 S   6 1.00       0.000000000000
      0.4563240000D+04  0.1966650249D-02
      0.6820240000D+03  0.1523060193D-01
      0.1549730000D+03  0.7612690966D-01
      0.4445530000D+02  0.2608010331D+00
      0.1302900000D+02  0.6164620782D+00
      0.1827730000D+01  0.2210060280D+00
 SP   3 1.00       0.000000000000
      0.2096420000D+02  0.1146600807D+00  0.4024869267D-01
      0.4803310000D+01  0.9199996477D+00  0.2375939567D+00
      0.1459330000D+01 -0.3030682134D-02  0.8158538515D+00
 SP   1 1.00       0.000000000000
      0.4834560000D+00  0.1000000000D+01  0.1000000000D+01
 SP   1 1.00       0.000000000000
      0.1455850000D+00  0.1000000000D+01  0.1000000000D+01
 D   1 1.00       0.000000000000
      0.6260000000D+00  0.1000000000D+01
 ****
      2 0
 S   6 1.00       0.000000000000
      0.6293480000D+04  0.1969788147D-02
      0.9490440000D+03  0.1496128592D-01
      0.2187760000D+03  0.7350053084D-01
      0.6369160000D+02  0.2489367658D+00
      0.1882820000D+02  0.6024594331D+00
      0.2720230000D+01  0.2562017589D+00
 SP   3 1.00       0.000000000000
      0.3063310000D+02  0.1119060795D+00  0.3831191864D-01
      0.7026140000D+01  0.9216666549D+00  0.2374031155D+00
      0.2112050000D+01 -0.2569191826D-02  0.8175923978D+00
 SP   1 1.00       0.000000000000
      0.6840090000D+00  0.1000000000D+01  0.1000000000D+01
 SP   1 1.00       0.000000000000
      0.2008780000D+00  0.1000000000D+01  0.1000000000D+01
 D   1 1.00       0.000000000000
      0.9130000000D+00  0.1000000000D+01
 ****
      3 0
 S   3 1.00       0.000000000000
      0.3386500000D+02  0.2549381454D-01
      0.5094790000D+01  0.1903731086D+00
      0.1158790000D+01  0.8521614860D+00
 S   1 1.00       0.000000000000
      0.3258400000D+00  0.1000000000D+01
 S   1 1.00       0.000000000000
      0.1027410000D+00  0.1000000000D+01
 P   1 1.00       0.000000000000
      0.7500000000D+00  0.1000000000D+01
 ****

 There are    33 symmetry adapted cartesian basis functions of A'  symmetry.
 There are    11 symmetry adapted cartesian basis functions of A"  symmetry.
 There are    31 symmetry adapted basis functions of A'  symmetry.
 There are    11 symmetry adapted basis functions of A"  symmetry.
    42 basis functions,    72 primitive gaussians,    44 cartesian basis functions
     7 alpha electrons        7 beta electrons
       nuclear repulsion energy        24.1455571089 Hartrees.
 IExCor=  402 DFT=T Ex+Corr=B3LYP ExCW=0 ScaHFX=  0.200000
 ScaDFX=  0.800000  0.720000  1.000000  0.810000 ScalE2=  1.000000  1.000000
 IRadAn=      0 IRanWt=     -1 IRanGd=            0 ICorTp=0 IEmpDi=  4
 NAtoms=    3 NActive=    3 NUniq=    3 SFac= 1.00D+00 NAtFMM=   60 NAOKFM=F Big=F
 Integral buffers will be    131072 words long.
 Raffenetti 2 integral format.
 Two-electron integral symmetry is turned on.
 Leave Link  301 at Thu Apr 14 13:06:37 2016, MaxMem=   104857600 cpu:         0.0
 (Enter /home/projets/algogen/g09.D01/g09/l302.exe)
 NPDir=0 NMtPBC=     1 NCelOv=     1 NCel=       1 NClECP=     1 NCelD=      1
         NCelK=      1 NCelE2=     1 NClLst=     1 CellRange=     0.0.
 One-electron integrals computed using PRISM.
 NBasis=    42 RedAO= T EigKep=  8.71D-03  NBF=    31    11
 NBsUse=    42 1.00D-06 EigRej= -1.00D+00 NBFU=    31    11
 Precomputing XC quadrature grid using
 IXCGrd= 4 IRadAn=           0 IRanWt=          -1 IRanGd=           0 AccXCQ= 0.00D+00.
 Generated NRdTot=       0 NPtTot=           0 NUsed=           0 NTot=          32
 NSgBfM=    44    44    44    44    44 MxSgAt=     3 MxSgA2=     3.
 Leave Link  302 at Thu Apr 14 13:06:37 2016, MaxMem=   104857600 cpu:         0.1
 (Enter /home/projets/algogen/g09.D01/g09/l303.exe)
 DipDrv:  MaxL=1.
 Leave Link  303 at Thu Apr 14 13:06:37 2016, MaxMem=   104857600 cpu:         0.0
 (Enter /home/projets/algogen/g09.D01/g09/l401.exe)
 ExpMin= 1.03D-01 ExpMax= 6.29D+03 ExpMxC= 9.49D+02 IAcc=1 IRadAn=         1 AccDes= 0.00D+00
 Harris functional with IExCor=  402 and IRadAn=       1 diagonalized for initial guess.
 HarFok:  IExCor=  402 AccDes= 0.00D+00 IRadAn=         1 IDoV= 1 UseB2=F ITyADJ=14
 ICtDFT=  3500011 ScaDFX=  1.000000  1.000000  1.000000  1.000000
 FoFCou: FMM=F IPFlag=           0 FMFlag=      100000 FMFlg1=           0
         NFxFlg=           0 DoJE=T BraDBF=F KetDBF=T FulRan=T
         wScrn=  0.000000 ICntrl=     500 IOpCl=  0 I1Cent=   200000004 NGrid=           0
         NMat0=    1 NMatS0=      1 NMatT0=    0 NMatD0=    1 NMtDS0=    0 NMtDT0=    0
 Petite list used in FoFCou.
 Harris En= -93.3710020238417    
 JPrj=0 DoOrth=F DoCkMO=F.
 Initial guess orbital symmetries:
       Occupied  (A') (A') (A') (A') (A') (A") (A')
       Virtual   (A') (A") (A') (A') (A') (A") (A') (A') (A') (A')
                 (A") (A') (A") (A') (A') (A") (A') (A') (A") (A')
                 (A") (A') (A') (A') (A") (A') (A") (A') (A') (A')
                 (A") (A') (A') (A') (A')
 The electronic state of the initial guess is 1-A'.
 Leave Link  401 at Thu Apr 14 13:06:37 2016, MaxMem=   104857600 cpu:         0.1
 (Enter /home/projets/algogen/g09.D01/g09/l502.exe)
 Closed shell SCF:
 Using DIIS extrapolation, IDIIS=  1040.
 Integral symmetry usage will be decided dynamically.
 Keep R1 ints in memory in symmetry-blocked form, NReq=1300126.
 IVT=       24966 IEndB=       24966 NGot=   104857600 MDV=   104613769
 LenX=   104613769 LenY=   104611392
 Requested convergence on RMS density matrix=1.00D-08 within 128 cycles.
 Requested convergence on MAX density matrix=1.00D-06.
 Requested convergence on             energy=1.00D-06.
 No special actions if energy rises.
 FoFCou: FMM=F IPFlag=           0 FMFlag=           0 FMFlg1=           0
         NFxFlg=           0 DoJE=F BraDBF=F KetDBF=F FulRan=T
         wScrn=  0.000000 ICntrl=     600 IOpCl=  0 I1Cent=           0 NGrid=           0
         NMat0=    1 NMatS0=    903 NMatT0=    0 NMatD0=    1 NMtDS0=    0 NMtDT0=    0
 Petite list used in FoFCou.
 Integral accuracy reduced to 1.0D-05 until final iterations.

 Cycle   1  Pass 0  IDiag  1:
 E= -93.3496589719426    
 DIIS: error= 3.01D-02 at cycle   1 NSaved=   1.
 NSaved= 1 IEnMin= 1 EnMin= -93.3496589719426     IErMin= 1 ErrMin= 3.01D-02
 ErrMax= 3.01D-02  0.00D+00 EMaxC= 1.00D-01 BMatC= 3.15D-02 BMatP= 3.15D-02
 IDIUse=3 WtCom= 6.99D-01 WtEn= 3.01D-01
 Coeff-Com:  0.100D+01
 Coeff-En:   0.100D+01
 Coeff:      0.100D+01
 Gap=     0.290 Goal=   None    Shift=    0.000
 GapD=    0.290 DampG=1.000 DampE=0.500 DampFc=0.5000 IDamp=-1.
 Damping current iteration by 5.00D-01
 RMSDP=5.89D-03 MaxDP=8.94D-02              OVMax= 1.15D-01

 Cycle   2  Pass 0  IDiag  1:
 E= -93.3631785832330     Delta-E=       -0.013519611290 Rises=F Damp=T
 DIIS: error= 4.67D-03 at cycle   2 NSaved=   2.
 NSaved= 2 IEnMin= 2 EnMin= -93.3631785832330     IErMin= 2 ErrMin= 4.67D-03
 ErrMax= 4.67D-03  0.00D+00 EMaxC= 1.00D-01 BMatC= 1.70D-03 BMatP= 3.15D-02
 IDIUse=3 WtCom= 9.53D-01 WtEn= 4.67D-02
 Coeff-Com: -0.107D+00 0.111D+01
 Coeff-En:   0.000D+00 0.100D+01
 Coeff:     -0.102D+00 0.110D+01
 Gap=     0.294 Goal=   None    Shift=    0.000
 RMSDP=1.01D-03 MaxDP=1.03D-02 DE=-1.35D-02 OVMax= 6.08D-02

 Cycle   3  Pass 0  IDiag  1:
 E= -93.3749059143857     Delta-E=       -0.011727331153 Rises=F Damp=F
 DIIS: error= 9.95D-03 at cycle   3 NSaved=   3.
 NSaved= 3 IEnMin= 3 EnMin= -93.3749059143857     IErMin= 2 ErrMin= 4.67D-03
 ErrMax= 9.95D-03  0.00D+00 EMaxC= 1.00D-01 BMatC= 1.67D-03 BMatP= 1.70D-03
 IDIUse=3 WtCom= 9.01D-01 WtEn= 9.95D-02
 Coeff-Com: -0.109D+00 0.603D+00 0.505D+00
 Coeff-En:   0.000D+00 0.000D+00 0.100D+01
 Coeff:     -0.979D-01 0.543D+00 0.555D+00
 Gap=     0.297 Goal=   None    Shift=    0.000
 RMSDP=8.51D-04 MaxDP=8.50D-03 DE=-1.17D-02 OVMax= 2.44D-02

 Cycle   4  Pass 0  IDiag  1:
 E= -93.3755178597455     Delta-E=       -0.000611945360 Rises=F Damp=F
 DIIS: error= 7.63D-03 at cycle   4 NSaved=   4.
 NSaved= 4 IEnMin= 4 EnMin= -93.3755178597455     IErMin= 2 ErrMin= 4.67D-03
 ErrMax= 7.63D-03  0.00D+00 EMaxC= 1.00D-01 BMatC= 9.33D-04 BMatP= 1.67D-03
 IDIUse=3 WtCom= 9.24D-01 WtEn= 7.63D-02
 Coeff-Com: -0.462D-01 0.113D+00 0.437D+00 0.496D+00
 Coeff-En:   0.000D+00 0.000D+00 0.396D+00 0.604D+00
 Coeff:     -0.427D-01 0.104D+00 0.434D+00 0.504D+00
 Gap=     0.292 Goal=   None    Shift=    0.000
 RMSDP=4.25D-04 MaxDP=5.59D-03 DE=-6.12D-04 OVMax= 1.13D-02

 Cycle   5  Pass 0  IDiag  1:
 E= -93.3763357964239     Delta-E=       -0.000817936678 Rises=F Damp=F
 DIIS: error= 3.13D-04 at cycle   5 NSaved=   5.
 NSaved= 5 IEnMin= 5 EnMin= -93.3763357964239     IErMin= 5 ErrMin= 3.13D-04
 ErrMax= 3.13D-04  0.00D+00 EMaxC= 1.00D-01 BMatC= 3.87D-06 BMatP= 9.33D-04
 IDIUse=3 WtCom= 9.97D-01 WtEn= 3.13D-03
 Coeff-Com: -0.132D-01 0.232D-01 0.149D+00 0.190D+00 0.652D+00
 Coeff-En:   0.000D+00 0.000D+00 0.000D+00 0.000D+00 0.100D+01
 Coeff:     -0.132D-01 0.231D-01 0.148D+00 0.189D+00 0.653D+00
 Gap=     0.292 Goal=   None    Shift=    0.000
 RMSDP=3.98D-05 MaxDP=3.38D-04 DE=-8.18D-04 OVMax= 9.42D-04

 Cycle   6  Pass 0  IDiag  1:
 E= -93.3763397153417     Delta-E=       -0.000003918918 Rises=F Damp=F
 DIIS: error= 3.66D-05 at cycle   6 NSaved=   6.
 NSaved= 6 IEnMin= 6 EnMin= -93.3763397153417     IErMin= 6 ErrMin= 3.66D-05
 ErrMax= 3.66D-05  0.00D+00 EMaxC= 1.00D-01 BMatC= 4.84D-08 BMatP= 3.87D-06
 IDIUse=1 WtCom= 1.00D+00 WtEn= 0.00D+00
 Coeff-Com: -0.321D-04-0.609D-03 0.305D-02 0.440D-02 0.102D+00 0.891D+00
 Coeff:     -0.321D-04-0.609D-03 0.305D-02 0.440D-02 0.102D+00 0.891D+00
 Gap=     0.292 Goal=   None    Shift=    0.000
 RMSDP=5.72D-06 MaxDP=1.00D-04 DE=-3.92D-06 OVMax= 8.98D-05

 Initial convergence to 1.0D-05 achieved.  Increase integral accuracy.
 Cycle   7  Pass 1  IDiag  1:
 E= -93.3763345660942     Delta-E=        0.000005149248 Rises=F Damp=F
 DIIS: error= 5.63D-06 at cycle   1 NSaved=   1.
 NSaved= 1 IEnMin= 1 EnMin= -93.3763345660942     IErMin= 1 ErrMin= 5.63D-06
 ErrMax= 5.63D-06  0.00D+00 EMaxC= 1.00D-01 BMatC= 1.70D-09 BMatP= 1.70D-09
 IDIUse=1 WtCom= 1.00D+00 WtEn= 0.00D+00
 Coeff-Com:  0.100D+01
 Coeff:      0.100D+01
 Gap=     0.292 Goal=   None    Shift=    0.000
 RMSDP=5.72D-06 MaxDP=1.00D-04 DE= 5.15D-06 OVMax= 3.53D-05

 Cycle   8  Pass 1  IDiag  1:
 E= -93.3763345666205     Delta-E=       -0.000000000526 Rises=F Damp=F
 DIIS: error= 8.20D-06 at cycle   2 NSaved=   2.
 NSaved= 2 IEnMin= 2 EnMin= -93.3763345666205     IErMin= 1 ErrMin= 5.63D-06
 ErrMax= 8.20D-06  0.00D+00 EMaxC= 1.00D-01 BMatC= 1.13D-09 BMatP= 1.70D-09
 IDIUse=1 WtCom= 1.00D+00 WtEn= 0.00D+00
 Coeff-Com:  0.434D+00 0.566D+00
 Coeff:      0.434D+00 0.566D+00
 Gap=     0.292 Goal=   None    Shift=    0.000
 RMSDP=8.18D-07 MaxDP=1.11D-05 DE=-5.26D-10 OVMax= 2.19D-05

 Cycle   9  Pass 1  IDiag  1:
 E= -93.3763345669490     Delta-E=       -0.000000000328 Rises=F Damp=F
 DIIS: error= 6.83D-06 at cycle   3 NSaved=   3.
 NSaved= 3 IEnMin= 3 EnMin= -93.3763345669490     IErMin= 1 ErrMin= 5.63D-06
 ErrMax= 6.83D-06  0.00D+00 EMaxC= 1.00D-01 BMatC= 8.08D-10 BMatP= 1.13D-09
 IDIUse=1 WtCom= 1.00D+00 WtEn= 0.00D+00
 Coeff-Com:  0.145D+00 0.429D+00 0.426D+00
 Coeff:      0.145D+00 0.429D+00 0.426D+00
 Gap=     0.292 Goal=   None    Shift=    0.000
 RMSDP=3.52D-07 MaxDP=3.66D-06 DE=-3.28D-10 OVMax= 9.77D-06

 Cycle  10  Pass 1  IDiag  1:
 E= -93.3763345676308     Delta-E=       -0.000000000682 Rises=F Damp=F
 DIIS: error= 4.40D-07 at cycle   4 NSaved=   4.
 NSaved= 4 IEnMin= 4 EnMin= -93.3763345676308     IErMin= 4 ErrMin= 4.40D-07
 ErrMax= 4.40D-07  0.00D+00 EMaxC= 1.00D-01 BMatC= 4.20D-12 BMatP= 8.08D-10
 IDIUse=1 WtCom= 1.00D+00 WtEn= 0.00D+00
 Coeff-Com:  0.804D-02 0.657D-01 0.104D+00 0.822D+00
 Coeff:      0.804D-02 0.657D-01 0.104D+00 0.822D+00
 Gap=     0.292 Goal=   None    Shift=    0.000
 RMSDP=5.59D-08 MaxDP=5.32D-07 DE=-6.82D-10 OVMax= 1.03D-06

 Cycle  11  Pass 1  IDiag  1:
 E= -93.3763345676351     Delta-E=       -0.000000000004 Rises=F Damp=F
 DIIS: error= 1.30D-07 at cycle   5 NSaved=   5.
 NSaved= 5 IEnMin= 5 EnMin= -93.3763345676351     IErMin= 5 ErrMin= 1.30D-07
 ErrMax= 1.30D-07  0.00D+00 EMaxC= 1.00D-01 BMatC= 5.55D-13 BMatP= 4.20D-12
 IDIUse=1 WtCom= 1.00D+00 WtEn= 0.00D+00
 Coeff-Com: -0.585D-02-0.261D-02 0.113D-01 0.322D+00 0.675D+00
 Coeff:     -0.585D-02-0.261D-02 0.113D-01 0.322D+00 0.675D+00
 Gap=     0.292 Goal=   None    Shift=    0.000
 RMSDP=1.50D-08 MaxDP=1.87D-07 DE=-4.32D-12 OVMax= 3.75D-07

 Cycle  12  Pass 1  IDiag  1:
 E= -93.3763345676356     Delta-E=       -0.000000000001 Rises=F Damp=F
 DIIS: error= 1.64D-08 at cycle   6 NSaved=   6.
 NSaved= 6 IEnMin= 6 EnMin= -93.3763345676356     IErMin= 6 ErrMin= 1.64D-08
 ErrMax= 1.64D-08  0.00D+00 EMaxC= 1.00D-01 BMatC= 1.04D-14 BMatP= 5.55D-13
 IDIUse=1 WtCom= 1.00D+00 WtEn= 0.00D+00
 Coeff-Com: -0.147D-02-0.487D-02-0.502D-02 0.202D-01 0.106D+00 0.886D+00
 Coeff:     -0.147D-02-0.487D-02-0.502D-02 0.202D-01 0.106D+00 0.886D+00
 Gap=     0.292 Goal=   None    Shift=    0.000
 RMSDP=3.40D-09 MaxDP=4.93D-08 DE=-5.54D-13 OVMax= 8.21D-08

 SCF Done:  E(RB3LYP) =  -93.3763345676     A.U. after   12 cycles
            NFock= 12  Conv=0.34D-08     -V/T= 2.0033
 KE= 9.307252180278D+01 PE=-2.660701857931D+02 EE= 5.547577231384D+01
 Leave Link  502 at Thu Apr 14 13:06:38 2016, MaxMem=   104857600 cpu:         0.7
 (Enter /home/projets/algogen/g09.D01/g09/l801.exe)
 DoSCS=F DFT=T ScalE2(SS,OS)=  1.000000  1.000000
 Range of M.O.s used for correlation:     1    42
 NBasis=    42 NAE=     7 NBE=     7 NFC=     0 NFV=     0
 NROrb=     42 NOA=     7 NOB=     7 NVA=    35 NVB=    35
 Leave Link  801 at Thu Apr 14 13:06:38 2016, MaxMem=   104857600 cpu:         0.0
 (Enter /home/projets/algogen/g09.D01/g09/l1101.exe)
 Using compressed storage, NAtomX=     3.
 Will process      4 centers per pass.
 Leave Link 1101 at Thu Apr 14 13:06:38 2016, MaxMem=   104857600 cpu:         0.1
 (Enter /home/projets/algogen/g09.D01/g09/l1102.exe)
 Symmetrizing basis deriv contribution to polar:
 IMax=3 JMax=2 DiffMx= 0.00D+00
 Leave Link 1102 at Thu Apr 14 13:06:38 2016, MaxMem=   104857600 cpu:         0.0
 (Enter /home/projets/algogen/g09.D01/g09/l1110.exe)
 Forming Gx(P) for the SCF density, NAtomX=     3.
 Integral derivatives from FoFJK, PRISM(SPDF).
 Do as many integral derivatives as possible in FoFJK.
 G2DrvN: MDV=     104857472.
 G2DrvN: will do     4 centers at a time, making    1 passes.
 Calling FoFCou, ICntrl=  3107 FMM=F I1Cent=   0 AccDes= 0.00D+00.
 FoFJK:  IHMeth= 1 ICntrl=    3107 DoSepK=F KAlg= 0 I1Cent=   0 FoldK=F
 IRaf=         0 NMat=   1 IRICut=       1 DoRegI=T DoRafI=F ISym2E= 1.
 FoFCou: FMM=F IPFlag=           0 FMFlag=      100000 FMFlg1=           0
         NFxFlg=           0 DoJE=F BraDBF=F KetDBF=F FulRan=T
         wScrn=  0.000000 ICntrl=    3107 IOpCl=  0 I1Cent=           0 NGrid=           0
         NMat0=    1 NMatS0=      1 NMatT0=    0 NMatD0=    1 NMtDS0=    0 NMtDT0=    0
 Petite list used in FoFCou.
 End of G2Drv F.D. properties file   721 does not exist.
 End of G2Drv F.D. properties file   722 does not exist.
 End of G2Drv F.D. properties file   788 does not exist.
 Leave Link 1110 at Thu Apr 14 13:06:39 2016, MaxMem=   104857600 cpu:         0.8
 (Enter /home/projets/algogen/g09.D01/g09/l1002.exe)
 Minotr:  Closed shell wavefunction.
          IDoAtm=111
          Direct CPHF calculation.
          Differentiating once with respect to electric field.
                with respect to dipole field.
          Differentiating once with respect to nuclear coordinates.
          Using symmetry in CPHF.
          Requested convergence is 1.0D-08 RMS, and 1.0D-07 maximum.
          Secondary convergence is 1.0D-12 RMS, and 1.0D-12 maximum.
          NewPWx=T KeepS1=F KeepF1=F KeepIn=T MapXYZ=F SortEE=F KeepMc=T.
          MDV=     104857524 using IRadAn=       2.
 Generate precomputed XC quadrature information.
 Keep R1 ints in memory in symmetry-blocked form, NReq=1274720.
 FoFCou: FMM=F IPFlag=           0 FMFlag=           0 FMFlg1=           0
         NFxFlg=           0 DoJE=F BraDBF=F KetDBF=F FulRan=T
         wScrn=  0.000000 ICntrl=     600 IOpCl=  0 I1Cent=           0 NGrid=           0
         NMat0=    1 NMatS0=    903 NMatT0=    0 NMatD0=    1 NMtDS0=    0 NMtDT0=    0
 Petite list used in FoFCou.
          Solving linear equations simultaneously, MaxMat=       0.
          There are    12 degrees of freedom in the 1st order CPHF.  IDoFFX=6 NUNeed=     3.
      9 vectors produced by pass  0 Test12= 2.04D-15 8.33D-09 XBig12= 1.83D+01 2.86D+00.
 AX will form     9 AO Fock derivatives at one time.
      9 vectors produced by pass  1 Test12= 2.04D-15 8.33D-09 XBig12= 1.04D+01 1.35D+00.
      9 vectors produced by pass  2 Test12= 2.04D-15 8.33D-09 XBig12= 4.79D-02 8.19D-02.
      9 vectors produced by pass  3 Test12= 2.04D-15 8.33D-09 XBig12= 6.86D-05 2.46D-03.
      9 vectors produced by pass  4 Test12= 2.04D-15 8.33D-09 XBig12= 5.74D-08 6.27D-05.
      8 vectors produced by pass  5 Test12= 2.04D-15 8.33D-09 XBig12= 6.52D-11 3.31D-06.
      4 vectors produced by pass  6 Test12= 2.04D-15 8.33D-09 XBig12= 6.53D-14 1.11D-07.
 InvSVY:  IOpt=1 It=  1 EMax= 7.77D-16
 Solved reduced A of dimension    57 with     9 vectors.
 FullF1:  Do perturbations    1 to     3.
 Isotropic polarizability for W=    0.000000       14.21 Bohr**3.
 End of Minotr F.D. properties file   721 does not exist.
 End of Minotr F.D. properties file   722 does not exist.
 End of Minotr F.D. properties file   788 does not exist.
 Leave Link 1002 at Thu Apr 14 13:06:40 2016, MaxMem=   104857600 cpu:         1.1
 (Enter /home/projets/algogen/g09.D01/g09/l601.exe)
 Copying SCF densities to generalized density rwf, IOpCl= 0 IROHF=0.

 **********************************************************************

            Population analysis using the SCF density.

 **********************************************************************

 Orbital symmetries:
       Occupied  (A') (A') (A') (A') (A') (A") (A')
       Virtual   (A') (A") (A') (A') (A') (A") (A') (A') (A') (A')
                 (A") (A') (A") (A') (A') (A") (A') (A') (A") (A')
                 (A") (A') (A') (A') (A") (A') (A") (A') (A') (A')
                 (A") (A') (A') (A') (A')
 The electronic state is 1-A'.
 Alpha  occ. eigenvalues --  -14.38597 -10.24069  -1.00607  -0.52420  -0.46734
 Alpha  occ. eigenvalues --   -0.39611  -0.34321
 Alpha virt. eigenvalues --   -0.05104  -0.00079   0.02315   0.21834   0.29851
 Alpha virt. eigenvalues --    0.39508   0.40616   0.52458   0.53661   0.62972
 Alpha virt. eigenvalues --    0.63690   0.72396   0.99330   1.03062   1.27068
 Alpha virt. eigenvalues --    1.35202   1.40519   1.54182   1.69652   1.88185
 Alpha virt. eigenvalues --    2.03614   2.13944   2.23552   2.39236   2.43386
 Alpha virt. eigenvalues --    2.69568   2.72794   2.84464   2.97857   3.13230
 Alpha virt. eigenvalues --    3.71242   3.88251   4.31959  23.90688  35.51198
     Molecular Orbital Coefficients:
                           1         2         3         4         5
                           O         O         O         O         O
     Eigenvalues --   -14.38597 -10.24069  -1.00607  -0.52420  -0.46734
   1 1   C  1S         -0.00006   0.56275  -0.07528   0.02304   0.07535
   2        2S          0.00057   0.46354  -0.11398   0.03737   0.11979
   3        2PX         0.00005  -0.00012  -0.01746   0.13810  -0.05940
   4        2PY        -0.00040  -0.00101  -0.10563  -0.04664   0.01857
   5        2PZ         0.00000   0.00000   0.00000   0.00000   0.00000
   6        3S         -0.00173   0.01767   0.29193  -0.10923  -0.34756
   7        3PX        -0.00027  -0.00191  -0.02538   0.20034  -0.08299
   8        3PY         0.00359  -0.00682  -0.12375  -0.05759   0.03150
   9        3PZ         0.00000   0.00000   0.00000   0.00000   0.00000
  10        4S          0.00291   0.00071   0.05590  -0.09910  -0.31596
  11        4PX         0.00029   0.00038  -0.00552   0.09967  -0.02021
  12        4PY        -0.00241  -0.00157   0.00048  -0.02907  -0.01045
  13        4PZ         0.00000   0.00000   0.00000   0.00000   0.00000
  14        5D 0        0.00116  -0.00247  -0.01576   0.00308   0.00196
  15        5D+1        0.00000   0.00000   0.00000   0.00000   0.00000
  16        5D-1        0.00000   0.00000   0.00000   0.00000   0.00000
  17        5D+2        0.00205  -0.00253  -0.01743  -0.02102   0.00397
  18        5D-2        0.00002   0.00083   0.00865  -0.03355   0.01420
  19 2   N  1S          0.55725  -0.00025  -0.09720  -0.05553  -0.05928
  20        2S          0.46598   0.00019  -0.15280  -0.08894  -0.09524
  21        2PX        -0.00035   0.00010  -0.01649   0.14374  -0.09093
  22        2PY         0.00084   0.00088   0.09483  -0.03053  -0.18071
  23        2PZ         0.00000   0.00000   0.00000   0.00000   0.00000
  24        3S          0.01548  -0.00226   0.41737   0.25781   0.27653
  25        3PX         0.00000  -0.00029  -0.02777   0.21207  -0.13936
  26        3PY         0.00344  -0.00523   0.12765  -0.03906  -0.24450
  27        3PZ         0.00000   0.00000   0.00000   0.00000   0.00000
  28        4S         -0.00760  -0.00703   0.25724   0.29377   0.39880
  29        4PX         0.00015   0.00028  -0.00979   0.12734  -0.10569
  30        4PY        -0.00214  -0.00276   0.04843  -0.02814  -0.16578
  31        4PZ         0.00000   0.00000   0.00000   0.00000   0.00000
  32        5D 0       -0.00068   0.00110  -0.01406   0.00370   0.00602
  33        5D+1        0.00000   0.00000   0.00000   0.00000   0.00000
  34        5D-1        0.00000   0.00000   0.00000   0.00000   0.00000
  35        5D+2       -0.00122   0.00225  -0.01475  -0.00530   0.02294
  36        5D-2       -0.00001   0.00006  -0.00663   0.02446  -0.01162
  37 3   H  1S          0.00041   0.00013   0.07708  -0.15531   0.04339
  38        2S         -0.00038  -0.00236   0.07914  -0.25729   0.08107
  39        3S          0.00069   0.00171  -0.00577  -0.05428   0.07131
  40        4PX        -0.00019  -0.00201   0.01906  -0.02278   0.00454
  41        4PY        -0.00020  -0.00087  -0.00396  -0.00302  -0.01891
  42        4PZ         0.00000   0.00000   0.00000   0.00000   0.00000
                           6         7         8         9        10
                           O         O         V         V         V
     Eigenvalues --    -0.39611  -0.34321  -0.05104  -0.00079   0.02315
   1 1   C  1S          0.00000  -0.05409   0.02329   0.00000   0.02628
   2        2S          0.00000  -0.08749   0.03687   0.00000   0.04149
   3        2PX         0.00000   0.02273  -0.12749   0.00000   0.19408
   4        2PY         0.00000   0.21610  -0.03407   0.00000  -0.02888
   5        2PZ         0.16928   0.00000   0.00000   0.22527   0.00000
   6        3S          0.00000   0.23768  -0.10027   0.00000  -0.10574
   7        3PX         0.00000   0.02551  -0.19491   0.00000   0.27348
   8        3PY         0.00000   0.28204  -0.05607   0.00000  -0.02322
   9        3PZ         0.25049   0.00000   0.00000   0.33997   0.00000
  10        4S          0.00000   0.50999  -0.22704   0.00000  -0.87614
  11        4PX         0.00000   0.02704  -0.32172   0.00000   0.75386
  12        4PY         0.00000   0.14277  -0.11338   0.00000   0.03676
  13        4PZ         0.17815   0.00000   0.00000   0.65556   0.00000
  14        5D 0        0.00000   0.01126  -0.00956   0.00000   0.00241
  15        5D+1       -0.00861   0.00000   0.00000  -0.01062   0.00000
  16        5D-1       -0.04569   0.00000   0.00000   0.01507   0.00000
  17        5D+2        0.00000   0.02649   0.01686   0.00000   0.01579
  18        5D-2        0.00000  -0.01408  -0.02301   0.00000  -0.00981
  19 2   N  1S          0.00000  -0.00351   0.00914   0.00000   0.02430
  20        2S          0.00000  -0.00521   0.01438   0.00000   0.03940
  21        2PX         0.00000   0.04986   0.24703   0.00000  -0.00699
  22        2PY         0.00000  -0.17196  -0.00869   0.00000   0.01832
  23        2PZ         0.22820   0.00000   0.00000  -0.20909   0.00000
  24        3S          0.00000   0.01203  -0.03176   0.00000  -0.12556
  25        3PX         0.00000   0.07388   0.35160   0.00000  -0.01433
  26        3PY         0.00000  -0.23601  -0.02128   0.00000   0.02588
  27        3PZ         0.33582   0.00000   0.00000  -0.28969   0.00000
  28        4S          0.00000   0.02579  -0.24117   0.00000  -0.22846
  29        4PX         0.00000   0.07643   0.60147   0.00000  -0.03929
  30        4PY         0.00000  -0.21434  -0.04352   0.00000   0.12352
  31        4PZ         0.27904   0.00000   0.00000  -0.54728   0.00000
  32        5D 0        0.00000   0.01076   0.00177   0.00000  -0.00649
  33        5D+1       -0.00629   0.00000   0.00000   0.00379   0.00000
  34        5D-1        0.03162   0.00000   0.00000   0.01365   0.00000
  35        5D+2        0.00000   0.01665   0.00311   0.00000   0.01353
  36        5D-2        0.00000   0.00937  -0.00107   0.00000   0.01826
  37 3   H  1S          0.00000   0.00653   0.10169   0.00000   0.08918
  38        2S          0.00000   0.00888   0.25980   0.00000   0.19554
  39        3S          0.00000   0.08904   0.41950   0.00000   1.49472
  40        4PX         0.00000  -0.00763  -0.00446   0.00000  -0.02649
  41        4PY         0.00000   0.01332   0.03529   0.00000  -0.02202
  42        4PZ         0.02576   0.00000   0.00000   0.01247   0.00000
                          11        12        13        14        15
                           V         V         V         V         V
     Eigenvalues --     0.21834   0.29851   0.39508   0.40616   0.52458
   1 1   C  1S         -0.00514  -0.02907   0.00000   0.04145   0.07788
   2        2S         -0.00770  -0.04952   0.00000   0.07365   0.15326
   3        2PX         0.02282  -0.05122   0.00000  -0.19072  -0.00300
   4        2PY         0.01832  -0.01088   0.00000  -0.08227   0.08251
   5        2PZ         0.00000   0.00000  -0.22738   0.00000   0.00000
   6        3S         -0.01874   0.07081   0.00000  -0.34813  -1.31437
   7        3PX         0.01753  -0.12162   0.00000  -0.69181  -0.12516
   8        3PY         0.04409  -0.06631   0.00000  -0.42190   0.12112
   9        3PZ         0.00000   0.00000  -0.83671   0.00000   0.00000
  10        4S          1.84144   2.90978   0.00000   0.54483   0.74398
  11        4PX         0.33092  -0.49906   0.00000   1.09599  -0.29296
  12        4PY        -1.30391  -2.27485   0.00000   0.31268  -0.26014
  13        4PZ         0.00000   0.00000   1.12420   0.00000   0.00000
  14        5D 0       -0.01343   0.01378   0.00000  -0.01176  -0.03012
  15        5D+1        0.00000   0.00000   0.00329   0.00000   0.00000
  16        5D-1        0.00000   0.00000   0.05173   0.00000   0.00000
  17        5D+2        0.01686  -0.02161   0.00000  -0.04016  -0.04509
  18        5D-2        0.00650   0.01704   0.00000   0.03233   0.04264
  19 2   N  1S          0.03116   0.03406   0.00000   0.01316  -0.03131
  20        2S          0.05050   0.05548   0.00000   0.02318  -0.04917
  21        2PX         0.01321  -0.05532   0.00000  -0.04168  -0.03531
  22        2PY        -0.07200  -0.00987   0.00000   0.05151  -0.04940
  23        2PZ         0.00000   0.00000  -0.04558   0.00000   0.00000
  24        3S         -0.11580  -0.12638   0.00000  -0.05887   0.08544
  25        3PX         0.03238  -0.07399   0.00000  -0.15576  -0.10214
  26        3PY        -0.10950   0.00338   0.00000   0.09204  -0.41920
  27        3PZ         0.00000   0.00000  -0.16185   0.00000   0.00000
  28        4S         -1.48191  -2.69176   0.00000  -0.50016   0.27586
  29        4PX        -0.00515  -0.16264   0.00000   0.19988   0.03840
  30        4PY        -0.73473  -1.07966   0.00000  -0.55156   1.40296
  31        4PZ         0.00000   0.00000   0.11408   0.00000   0.00000
  32        5D 0        0.00131   0.03258   0.00000   0.01846   0.04848
  33        5D+1        0.00000   0.00000   0.00050   0.00000   0.00000
  34        5D-1        0.00000   0.00000  -0.03693   0.00000   0.00000
  35        5D+2        0.02813   0.00138   0.00000   0.02212   0.06928
  36        5D-2       -0.00418   0.00507   0.00000  -0.02612  -0.00174
  37 3   H  1S          0.13374  -0.08937   0.00000  -0.03954   0.00040
  38        2S          1.03810  -1.16092   0.00000  -0.00633  -0.55194
  39        3S         -1.40132   0.14152   0.00000   0.64985  -0.21339
  40        4PX         0.02993  -0.01120   0.00000   0.04851  -0.10301
  41        4PY        -0.00855  -0.00637   0.00000  -0.01108  -0.04323
  42        4PZ         0.00000   0.00000  -0.01051   0.00000   0.00000
                          16        17        18        19        20
                           V         V         V         V         V
     Eigenvalues --     0.53661   0.62972   0.63690   0.72396   0.99330
   1 1   C  1S          0.04866  -0.01549   0.00000   0.06509   0.00000
   2        2S          0.09247  -0.03242   0.00000   0.12729   0.00000
   3        2PX         0.17266   0.04738   0.00000   0.01675   0.00000
   4        2PY        -0.13702   0.09514   0.00000   0.23010   0.00000
   5        2PZ         0.00000   0.00000   0.10285   0.00000  -0.05182
   6        3S         -0.69281   0.37863   0.00000  -0.81635   0.00000
   7        3PX         0.52447   0.12089   0.00000   0.01607   0.00000
   8        3PY        -0.74829   0.35288   0.00000   0.56804   0.00000
   9        3PZ         0.00000   0.00000   0.22321   0.00000  -0.04950
  10        4S          3.37931  -1.35757   0.00000   0.96885   0.00000
  11        4PX        -1.28185  -0.27376   0.00000  -0.30781   0.00000
  12        4PY        -0.52713   0.16553   0.00000  -0.36655   0.00000
  13        4PZ         0.00000   0.00000  -0.85548   0.00000  -0.04261
  14        5D 0       -0.02901  -0.02354   0.00000  -0.06607   0.00000
  15        5D+1        0.00000   0.00000  -0.01084   0.00000  -0.54986
  16        5D-1        0.00000   0.00000   0.06588   0.00000  -0.10601
  17        5D+2       -0.02482  -0.02833   0.00000  -0.13196   0.00000
  18        5D-2        0.02628   0.04384   0.00000  -0.00114   0.00000
  19 2   N  1S          0.02563  -0.01251   0.00000   0.01388   0.00000
  20        2S          0.04557  -0.02533   0.00000   0.03391   0.00000
  21        2PX        -0.06708  -0.21517   0.00000   0.05655   0.00000
  22        2PY        -0.00082   0.05532   0.00000   0.28041   0.00000
  23        2PZ         0.00000   0.00000  -0.24513   0.00000  -0.01984
  24        3S         -0.13476   0.17682   0.00000  -0.38466   0.00000
  25        3PX        -0.19434  -0.75395   0.00000   0.16333   0.00000
  26        3PY        -0.04112   0.14918   0.00000   0.69075   0.00000
  27        3PZ         0.00000   0.00000  -0.81571   0.00000   0.00505
  28        4S         -1.62391   0.21998   0.00000   0.60305   0.00000
  29        4PX         0.34345   1.56930   0.00000  -0.28337   0.00000
  30        4PY        -1.30333   0.14007   0.00000  -0.36082   0.00000
  31        4PZ         0.00000   0.00000   1.48423   0.00000  -0.13886
  32        5D 0        0.02093  -0.00893   0.00000   0.04620   0.00000
  33        5D+1        0.00000   0.00000  -0.00133   0.00000  -0.19026
  34        5D-1        0.00000   0.00000  -0.01569   0.00000   0.04177
  35        5D+2        0.03100   0.01602   0.00000   0.08654   0.00000
  36        5D-2        0.01454  -0.02034   0.00000  -0.00072   0.00000
  37 3   H  1S          0.06052  -0.04434   0.00000   0.03293   0.00000
  38        2S          0.12947   0.41508   0.00000  -0.03877   0.00000
  39        3S         -1.40168   0.66815   0.00000  -0.75763   0.00000
  40        4PX        -0.04588   0.11397   0.00000  -0.07405   0.00000
  41        4PY        -0.05029  -0.07373   0.00000  -0.11985   0.00000
  42        4PZ         0.00000   0.00000   0.02053   0.00000   0.62327
                          21        22        23        24        25
                           V         V         V         V         V
     Eigenvalues --     1.03062   1.27068   1.35202   1.40519   1.54182
   1 1   C  1S         -0.02256   0.01079   0.00000  -0.02238   0.01220
   2        2S         -0.02570   0.02599   0.00000  -0.04426   0.02684
   3        2PX        -0.00791  -0.03133   0.00000  -0.05294   0.05345
   4        2PY        -0.13400  -0.00724   0.00000  -0.05716   0.04449
   5        2PZ         0.00000   0.00000   0.05428   0.00000   0.00000
   6        3S         -0.02876  -0.20297   0.00000   0.34107  -0.15611
   7        3PX        -0.08944  -0.03670   0.00000  -0.18013  -0.00197
   8        3PY         0.35854   0.17213   0.00000  -0.06809   0.26327
   9        3PZ         0.00000   0.00000   0.09830   0.00000   0.00000
  10        4S         -4.48612  -0.63501   0.00000  -0.57484  -1.57775
  11        4PX         0.02120   0.22139   0.00000   0.40627   0.26547
  12        4PY         2.37375   0.31651   0.00000   0.35266   0.68837
  13        4PZ         0.00000   0.00000  -0.19120   0.00000   0.00000
  14        5D 0        0.22539  -0.38362   0.00000   0.57647   0.15542
  15        5D+1        0.00000   0.00000  -0.30817   0.00000   0.00000
  16        5D-1        0.00000   0.00000   0.85010   0.00000   0.00000
  17        5D+2        0.33202   0.30175   0.00000  -0.37633   0.01153
  18        5D-2        0.04009  -0.64963   0.00000  -0.36173   0.41059
  19 2   N  1S          0.11165   0.00459   0.00000   0.00115  -0.00520
  20        2S          0.22229   0.01211   0.00000   0.00292  -0.00288
  21        2PX        -0.01632  -0.10419   0.00000  -0.07068  -0.06539
  22        2PY        -0.11990   0.03064   0.00000  -0.00724   0.06442
  23        2PZ         0.00000   0.00000   0.09080   0.00000   0.00000
  24        3S         -1.87063  -0.21480   0.00000  -0.01028  -0.23510
  25        3PX        -0.07856  -0.21923   0.00000  -0.16323  -0.02809
  26        3PY         0.05692   0.12471   0.00000  -0.05201   0.20604
  27        3PZ         0.00000   0.00000   0.22119   0.00000   0.00000
  28        4S          6.03549   1.08962   0.00000   0.22221   1.93599
  29        4PX         0.13336  -0.24800   0.00000   0.22697  -0.15206
  30        4PY         2.26883   0.37359   0.00000  -0.03718   0.69172
  31        4PZ         0.00000   0.00000   0.15123   0.00000   0.00000
  32        5D 0       -0.04471  -0.03002   0.00000   0.05243   0.35488
  33        5D+1        0.00000   0.00000  -0.05602   0.00000   0.00000
  34        5D-1        0.00000   0.00000  -0.26758   0.00000   0.00000
  35        5D+2       -0.08767   0.00323   0.00000  -0.08135  -0.24559
  36        5D-2       -0.00861   0.21587   0.00000   0.11896  -0.03565
  37 3   H  1S          0.08111  -0.12580   0.00000  -0.33510  -0.01852
  38        2S         -0.42068   0.08425   0.00000   1.19238   0.01540
  39        3S          0.46061  -0.11570   0.00000  -0.32133   0.12350
  40        4PX        -0.02428  -0.11749   0.00000  -0.39225  -0.32264
  41        4PY        -0.03199   0.36509   0.00000  -0.12502   0.82666
  42        4PZ         0.00000   0.00000  -0.09145   0.00000   0.00000
                          26        27        28        29        30
                           V         V         V         V         V
     Eigenvalues --     1.69652   1.88185   2.03614   2.13944   2.23552
   1 1   C  1S          0.00000   0.02790   0.00000   0.00535   0.02156
   2        2S          0.00000   0.04443   0.00000   0.00167   0.05375
   3        2PX         0.00000   0.04498   0.00000   0.47973  -0.06773
   4        2PY         0.00000   0.39307   0.00000   0.10410  -0.21884
   5        2PZ        -0.06247   0.00000  -0.07238   0.00000   0.00000
   6        3S          0.00000   0.04673   0.00000   0.11393  -0.44884
   7        3PX         0.00000   0.15932   0.00000  -0.37644   0.32942
   8        3PY         0.00000  -0.02735   0.00000  -0.15933   0.48864
   9        3PZ         0.05111   0.00000   0.06493   0.00000   0.00000
  10        4S          0.00000  -0.81792   0.00000  -0.43004  -0.82575
  11        4PX         0.00000   0.26163   0.00000   0.47763   0.06470
  12        4PY         0.00000   0.65947   0.00000  -0.01860   0.20320
  13        4PZ        -0.19800   0.00000  -0.09467   0.00000   0.00000
  14        5D 0        0.00000   0.84257   0.00000   0.20632   0.24155
  15        5D+1        0.83666   0.00000  -0.12524   0.00000   0.00000
  16        5D-1        0.30986   0.00000   0.07929   0.00000   0.00000
  17        5D+2        0.00000   0.69050   0.00000  -0.62633  -0.44775
  18        5D-2        0.00000  -0.19455   0.00000  -0.35083   0.27784
  19 2   N  1S          0.00000  -0.04125   0.00000   0.00468   0.01718
  20        2S          0.00000  -0.09526   0.00000   0.01478   0.03761
  21        2PX         0.00000  -0.00029   0.00000   0.00436  -0.01928
  22        2PY         0.00000   0.09662   0.00000  -0.03902   0.02139
  23        2PZ         0.01417   0.00000   0.00956   0.00000   0.00000
  24        3S          0.00000   0.89346   0.00000  -0.14539  -0.43876
  25        3PX         0.00000  -0.00367   0.00000  -0.12153   0.11591
  26        3PY         0.00000   0.66311   0.00000  -0.22835  -0.06186
  27        3PZ         0.10318   0.00000   0.02440   0.00000   0.00000
  28        4S          0.00000   0.02374   0.00000  -0.18149   1.19974
  29        4PX         0.00000   0.06999   0.00000  -0.02801  -0.08967
  30        4PY         0.00000  -0.45242   0.00000   0.07790   0.55842
  31        4PZ        -0.06695   0.00000  -0.02973   0.00000   0.00000
  32        5D 0        0.00000  -0.01174   0.00000  -0.05448  -0.68687
  33        5D+1       -0.13605   0.00000   0.98695   0.00000   0.00000
  34        5D-1       -0.06912   0.00000  -0.02574   0.00000   0.00000
  35        5D+2        0.00000   0.26540   0.00000   0.00832   0.27136
  36        5D-2        0.00000   0.02976   0.00000   0.14541   0.28030
  37 3   H  1S          0.00000  -0.01601   0.00000   1.07494  -0.52157
  38        2S          0.00000   0.51671   0.00000  -0.87060   0.85182
  39        3S          0.00000   0.23819   0.00000   0.81795  -0.22880
  40        4PX         0.00000   0.36743   0.00000   0.42728   0.28026
  41        4PY         0.00000   0.15126   0.00000   0.31939   0.68107
  42        4PZ         0.82654   0.00000   0.34948   0.00000   0.00000
                          31        32        33        34        35
                           V         V         V         V         V
     Eigenvalues --     2.39236   2.43386   2.69568   2.72794   2.84464
   1 1   C  1S          0.01769   0.00000   0.01117   0.00000   0.03698
   2        2S          0.04219   0.00000   0.03872   0.00000   0.09668
   3        2PX         0.59047   0.00000   0.06580   0.00000  -0.15756
   4        2PY        -0.20201   0.00000   0.13364   0.00000   0.65684
   5        2PZ         0.00000  -0.82550   0.00000  -1.01093   0.00000
   6        3S         -0.22011   0.00000  -0.50454   0.00000  -0.77909
   7        3PX         0.00586   0.00000  -0.34127   0.00000   0.48761
   8        3PY         0.36004   0.00000   0.51408   0.00000  -0.03499
   9        3PZ         0.00000   0.67278   0.00000   1.38145   0.00000
  10        4S         -0.60000   0.00000  -1.24752   0.00000  -0.96624
  11        4PX         0.67246   0.00000   0.04623   0.00000  -0.00269
  12        4PY         0.13728   0.00000   0.56555   0.00000   0.61352
  13        4PZ         0.00000  -0.53863   0.00000  -0.32593   0.00000
  14        5D 0        0.13599   0.00000   0.08386   0.00000   0.21580
  15        5D+1        0.00000  -0.03454   0.00000  -0.02961   0.00000
  16        5D-1        0.00000   0.61392   0.00000  -0.55215   0.00000
  17        5D+2       -0.29661   0.00000   0.57655   0.00000   0.01977
  18        5D-2       -0.67164   0.00000  -0.12096   0.00000  -0.10004
  19 2   N  1S          0.01413   0.00000  -0.01636   0.00000   0.00776
  20        2S          0.02485   0.00000  -0.02868   0.00000   0.01899
  21        2PX        -0.00240   0.00000  -0.26724   0.00000   0.16793
  22        2PY        -0.05354   0.00000   0.28396   0.00000   0.31430
  23        2PZ         0.00000   0.03600   0.00000  -0.19792   0.00000
  24        3S         -0.12489   0.00000  -0.07879   0.00000  -0.21629
  25        3PX         0.08523   0.00000   0.08293   0.00000  -0.07563
  26        3PY        -0.03309   0.00000   0.22560   0.00000  -0.24424
  27        3PZ         0.00000  -0.01208   0.00000  -0.00648   0.00000
  28        4S          0.10691   0.00000   2.43280   0.00000   1.02781
  29        4PX        -0.18183   0.00000  -0.61918   0.00000   0.36140
  30        4PY         0.00538   0.00000   1.26496   0.00000   0.61889
  31        4PZ         0.00000   0.39330   0.00000  -0.23614   0.00000
  32        5D 0        0.18456   0.00000  -0.75340   0.00000  -0.18651
  33        5D+1        0.00000  -0.02888   0.00000  -0.03891   0.00000
  34        5D-1        0.00000   0.82786   0.00000  -0.80233   0.00000
  35        5D+2       -0.07918   0.00000  -0.31709   0.00000  -0.92352
  36        5D-2       -0.62163   0.00000  -0.73780   0.00000   0.26141
  37 3   H  1S         -0.75411   0.00000   0.44072   0.00000  -0.42505
  38        2S          1.69918   0.00000  -1.63824   0.00000   1.26467
  39        3S         -0.14389   0.00000   0.27195   0.00000  -0.10591
  40        4PX         0.70673   0.00000  -0.85387   0.00000   0.69937
  41        4PY         0.26359   0.00000   0.18680   0.00000  -0.08405
  42        4PZ         0.00000  -0.08723   0.00000  -0.10530   0.00000
                          36        37        38        39        40
                           V         V         V         V         V
     Eigenvalues --     2.97857   3.13230   3.71242   3.88251   4.31959
   1 1   C  1S          0.05921   0.06344   0.00000   0.02014   0.05619
   2        2S          0.13400   0.11442   0.00000   0.04041   0.13724
   3        2PX         0.41261  -1.05019   0.00000   0.10656   0.04030
   4        2PY        -0.95507  -0.52930   0.00000   0.01666   0.17574
   5        2PZ         0.00000   0.00000   0.15674   0.00000   0.00000
   6        3S         -0.93393  -0.63378   0.00000  -0.30374  -1.17033
   7        3PX        -0.70541   1.98650   0.00000  -0.17933  -0.14053
   8        3PY         2.60973   1.35726   0.00000   0.26384   1.43795
   9        3PZ         0.00000   0.00000  -0.36321   0.00000   0.00000
  10        4S         -2.12698  -0.81141   0.00000   0.47647  -1.24837
  11        4PX         0.20903  -0.17831   0.00000   0.07417   0.01329
  12        4PY         0.43781   0.01318   0.00000  -0.19650   0.54571
  13        4PZ         0.00000   0.00000   0.24591   0.00000   0.00000
  14        5D 0        0.55212   0.57324   0.00000   0.07901   0.38198
  15        5D+1        0.00000   0.00000   0.00314   0.00000   0.00000
  16        5D-1        0.00000   0.00000   0.28053   0.00000   0.00000
  17        5D+2        1.12460  -0.14046   0.00000   0.11627   0.78934
  18        5D-2        0.22799  -0.75055   0.00000   0.24006   0.03823
  19 2   N  1S         -0.04543  -0.01215   0.00000  -0.00645  -0.04505
  20        2S         -0.11310  -0.03645   0.00000  -0.01510  -0.07899
  21        2PX         0.14719  -0.09018   0.00000  -1.24437   0.19974
  22        2PY         0.16889  -0.05710   0.00000  -0.18219  -1.27435
  23        2PZ         0.00000   0.00000  -1.27943   0.00000   0.00000
  24        3S          1.00342   0.44421   0.00000   0.24381   0.51410
  25        3PX        -0.08868  -0.05739   0.00000   1.62103  -0.28228
  26        3PY         1.16473   0.53063   0.00000   0.35930   2.53848
  27        3PZ         0.00000   0.00000   1.55656   0.00000   0.00000
  28        4S          2.11668   0.27426   0.00000  -0.52820   2.13624
  29        4PX         0.31335  -0.00635   0.00000  -0.43786   0.00402
  30        4PY         1.04491  -0.01229   0.00000  -0.32995   0.30790
  31        4PZ         0.00000   0.00000  -0.62558   0.00000   0.00000
  32        5D 0       -0.27267   0.06905   0.00000   0.06507  -0.50647
  33        5D+1        0.00000   0.00000   0.00943   0.00000   0.00000
  34        5D-1        0.00000   0.00000   0.20227   0.00000   0.00000
  35        5D+2       -0.72952  -0.27864   0.00000  -0.23831  -0.67640
  36        5D-2        0.37258  -0.38938   0.00000   0.35434  -0.08272
  37 3   H  1S          0.10072   0.32607   0.00000  -0.17296   0.01470
  38        2S         -0.22740   1.05424   0.00000   0.51724  -0.31714
  39        3S          0.46218  -0.05742   0.00000  -0.25348   0.07281
  40        4PX         0.00767   1.00535   0.00000   0.38307  -0.28090
  41        4PY        -0.29385   0.43800   0.00000  -0.29548   0.10392
  42        4PZ         0.00000   0.00000   0.01704   0.00000   0.00000
                          41        42
                           V         V
     Eigenvalues --    23.90688  35.51198
   1 1   C  1S         -2.03796   0.09427
   2        2S          2.24337  -0.13707
   3        2PX        -0.03532  -0.00083
   4        2PY        -0.06577   0.03247
   5        2PZ         0.00000   0.00000
   6        3S         -0.74330   0.16262
   7        3PX         0.14054   0.00932
   8        3PY         0.56902  -0.28916
   9        3PZ         0.00000   0.00000
  10        4S         -0.26852  -0.05861
  11        4PX        -0.01083  -0.01490
  12        4PY         0.13614   0.08807
  13        4PZ         0.00000   0.00000
  14        5D 0        0.17648  -0.09349
  15        5D+1        0.00000   0.00000
  16        5D-1        0.00000   0.00000
  17        5D+2        0.18692  -0.15844
  18        5D-2       -0.05378   0.00196
  19 2   N  1S         -0.08335  -2.14725
  20        2S          0.04871   2.28418
  21        2PX        -0.00826  -0.00094
  22        2PY        -0.07852   0.05301
  23        2PZ         0.00000   0.00000
  24        3S          0.18194  -0.50074
  25        3PX         0.01856   0.00568
  26        3PY         0.45690  -0.28328
  27        3PZ         0.00000   0.00000
  28        4S          0.59763   0.23640
  29        4PX        -0.01027  -0.01221
  30        4PY         0.21470   0.08141
  31        4PZ         0.00000   0.00000
  32        5D 0       -0.10586   0.04682
  33        5D+1        0.00000   0.00000
  34        5D-1        0.00000   0.00000
  35        5D+2       -0.21070   0.08621
  36        5D-2       -0.00438  -0.00143
  37 3   H  1S         -0.00774  -0.02720
  38        2S          0.16510   0.01847
  39        3S         -0.06880  -0.03842
  40        4PX         0.14189   0.00402
  41        4PY         0.06265   0.00913
  42        4PZ         0.00000   0.00000
     Density Matrix:
                           1         2         3         4         5
   1 1   C  1S          0.66297
   2        2S          0.56811   0.50253
   3        2PX        -0.00256  -0.00402   0.04684
   4        2PY        -0.00796  -0.01371  -0.00158   0.12075
   5        2PZ         0.00000   0.00000   0.00000   0.00000   0.05731
   6        3S         -0.10719  -0.18319   0.01173   0.03830   0.00000
   7        3PX        -0.00437  -0.00536   0.06724  -0.00538   0.00000
   8        3PY        -0.01746  -0.02421  -0.00251   0.15459   0.00000
   9        3PZ         0.00000   0.00000   0.00000   0.00000   0.08481
  10        4S         -0.11498  -0.18442   0.03140   0.20611   0.00000
  11        4PX        -0.00012  -0.00051   0.03135   0.00280   0.00000
  12        4PY        -0.02020  -0.03122  -0.00032   0.06393   0.00000
  13        4PZ         0.00000   0.00000   0.00000   0.00000   0.06031
  14        5D 0       -0.00119   0.00003   0.00168   0.00798   0.00000
  15        5D+1        0.00000   0.00000   0.00000   0.00000  -0.00291
  16        5D-1        0.00000   0.00000   0.00000   0.00000  -0.01547
  17        5D+2       -0.00346  -0.00362  -0.00446   0.01724   0.00000
  18        5D-2        0.00175   0.00216  -0.01190  -0.00426   0.00000
  19 2   N  1S          0.00317   0.00482  -0.00501   0.02155   0.00000
  20        2S          0.00527   0.00699  -0.00811   0.03442   0.00000
  21        2PX        -0.00988  -0.01591   0.05335   0.00825   0.00000
  22        2PY        -0.02332  -0.03628   0.00191  -0.09822   0.00000
  23        2PZ         0.00000   0.00000   0.00000   0.00000   0.07726
  24        3S         -0.01313  -0.01380   0.02433  -0.09676   0.00000
  25        3PX        -0.01537  -0.02441   0.07946   0.01284   0.00000
  26        3PY        -0.03822  -0.05415   0.00308  -0.13440   0.00000
  27        3PZ         0.00000   0.00000   0.00000   0.00000   0.11370
  28        4S          0.02420   0.04782   0.02595  -0.05577   0.00000
  29        4PX        -0.01654  -0.02669   0.05154   0.01930   0.00000
  30        4PY        -0.01348  -0.01791   0.00049  -0.10639   0.00000
  31        4PZ         0.00000   0.00000   0.00000   0.00000   0.09447
  32        5D 0        0.00327   0.00406   0.00129   0.00750   0.00000
  33        5D+1        0.00000   0.00000   0.00000   0.00000  -0.00213
  34        5D-1        0.00000   0.00000   0.00000   0.00000   0.01071
  35        5D+2        0.00617   0.00763  -0.00292   0.01166   0.00000
  36        5D-2       -0.00057  -0.00103   0.00880   0.00274   0.00000
  37 3   H  1S         -0.01278  -0.01981  -0.05044   0.00264   0.00000
  38        2S         -0.01517  -0.02159  -0.08305   0.01414   0.00000
  39        3S          0.00141   0.00035  -0.01921   0.04741   0.00000
  40        4PX        -0.00468  -0.00549  -0.00784  -0.00502   0.00000
  41        4PY        -0.00482  -0.00699   0.00216   0.00618   0.00000
  42        4PZ         0.00000   0.00000   0.00000   0.00000   0.00872
                           6         7         8         9        10
   6        3S          0.54951
   7        3PX         0.01116   0.09664
   8        3PY         0.05225  -0.00761   0.19845
   9        3PZ         0.00000   0.00000   0.00000   0.12549
  10        4S          0.51636   0.03591   0.26536   0.00000   0.74575
  11        4PX         0.00192   0.04495   0.00386   0.00000   0.01998
  12        4PY         0.08172  -0.00265   0.08311   0.00000   0.15803
  13        4PZ         0.00000   0.00000   0.00000   0.08925   0.00000
  14        5D 0       -0.00598   0.00229   0.01006   0.00000   0.00787
  15        5D+1        0.00000   0.00000   0.00000  -0.00431   0.00000
  16        5D-1        0.00000   0.00000   0.00000  -0.02289   0.00000
  17        5D+2        0.00415  -0.00684   0.02198   0.00000   0.02673
  18        5D-2       -0.00415  -0.01696  -0.00534   0.00000  -0.01572
  19 2   N  1S         -0.00702  -0.00796   0.02874   0.00000   0.03725
  20        2S         -0.00766  -0.01259   0.04246   0.00000   0.05813
  21        2PX         0.04589   0.07607   0.00992   0.00000   0.07799
  22        2PY         0.10594   0.00417  -0.12834   0.00000  -0.04455
  23        2PZ         0.00000   0.00000   0.00000   0.11432   0.00000
  24        3S          0.00072   0.03683  -0.10864   0.00000  -0.16682
  25        3PX         0.06945   0.11328   0.01535   0.00000   0.11829
  26        3PY         0.14063   0.00643  -0.17553   0.00000  -0.06419
  27        3PZ         0.00000   0.00000   0.00000   0.16824   0.00000
  28        4S         -0.17916   0.03980  -0.05779   0.00000  -0.25522
  29        4PX         0.07627   0.07296   0.02421   0.00000   0.11841
  30        4PY         0.04768   0.00286  -0.14007   0.00000  -0.10288
  31        4PZ         0.00000   0.00000   0.00000   0.13979   0.00000
  32        5D 0       -0.00805   0.00174   0.00949   0.00000   0.00486
  33        5D+1        0.00000   0.00000   0.00000  -0.00315   0.00000
  34        5D-1        0.00000   0.00000   0.00000   0.01584   0.00000
  35        5D+2       -0.01540  -0.00434   0.01506   0.00000   0.00189
  36        5D-2        0.00332   0.01255   0.00337   0.00000   0.01131
  37 3   H  1S          0.05188  -0.07301   0.00523   0.00000   0.01864
  38        2S          0.05020  -0.12010   0.02019   0.00000   0.01766
  39        3S          0.00130  -0.02875   0.06238   0.00000   0.05588
  40        4PX         0.00925  -0.01123  -0.00608   0.00000  -0.00401
  41        4PY         0.01780   0.00281   0.00766   0.00000   0.02570
  42        4PZ         0.00000   0.00000   0.00000   0.01290   0.00000
                          11        12        13        14        15
  11        4PX         0.02221
  12        4PY         0.00234   0.04269
  13        4PZ         0.00000   0.00000   0.06347
  14        5D 0        0.00132   0.00298   0.00000   0.00079
  15        5D+1        0.00000   0.00000  -0.00307   0.00000   0.00015
  16        5D-1        0.00000   0.00000  -0.01628   0.00000   0.00079
  17        5D+2       -0.00273   0.00868   0.00000   0.00105   0.00000
  18        5D-2       -0.00812  -0.00236   0.00000  -0.00074   0.00000
  19 2   N  1S         -0.00747   0.00068   0.00000   0.00370   0.00000
  20        2S         -0.01221   0.00328   0.00000   0.00486   0.00000
  21        2PX         0.03521   0.00777   0.00000   0.00217   0.00000
  22        2PY        -0.00913  -0.04347   0.00000  -0.00776   0.00000
  23        2PZ         0.00000   0.00000   0.08131   0.00000  -0.00393
  24        3S          0.03627  -0.01700   0.00000  -0.01017   0.00000
  25        3PX         0.05221   0.01165   0.00000   0.00330   0.00000
  26        3PY        -0.01208  -0.05989   0.00000  -0.01050   0.00000
  27        3PZ         0.00000   0.00000   0.11965   0.00000  -0.00578
  28        4S          0.04099  -0.01774   0.00000  -0.00414   0.00000
  29        4PX         0.03390   0.01662   0.00000   0.00240   0.00000
  30        4PY        -0.01104  -0.05604   0.00000  -0.00717   0.00000
  31        4PZ         0.00000   0.00000   0.09942   0.00000  -0.00480
  32        5D 0        0.00123   0.00272   0.00000   0.00072   0.00000
  33        5D+1        0.00000   0.00000  -0.00224   0.00000   0.00011
  34        5D-1        0.00000   0.00000   0.01127   0.00000  -0.00054
  35        5D+2       -0.00092   0.00457   0.00000   0.00088   0.00000
  36        5D-2        0.00593   0.00149   0.00000   0.00052   0.00000
  37 3   H  1S         -0.03321   0.01006   0.00000  -0.00307   0.00000
  38        2S         -0.05496   0.01589   0.00000  -0.00355   0.00000
  39        3S         -0.00882   0.02708   0.00000   0.00212   0.00000
  40        4PX        -0.00535  -0.00092   0.00000  -0.00089   0.00000
  41        4PY         0.00093   0.00438   0.00000   0.00034   0.00000
  42        4PZ         0.00000   0.00000   0.00918   0.00000  -0.00044
                          16        17        18        19        20
  16        5D-1        0.00418
  17        5D+2        0.00000   0.00295
  18        5D-2        0.00000   0.00047   0.00320
  19 2   N  1S          0.00000   0.00735   0.00049   0.65317
  20        2S          0.00000   0.00994   0.00079   0.57024   0.51498
  21        2PX         0.00000  -0.00355  -0.01392  -0.00272  -0.00406
  22        2PY         0.00000  -0.01257   0.00340   0.00852   0.01345
  23        2PZ        -0.02085   0.00000   0.00000   0.00000   0.00000
  24        3S          0.00000  -0.02247  -0.00257  -0.12538  -0.21178
  25        3PX         0.00000  -0.00514  -0.02075  -0.00215  -0.00346
  26        3PY         0.00000  -0.01721   0.00452   0.01400   0.02017
  27        3PZ        -0.03069   0.00000   0.00000   0.00000   0.00000
  28        4S          0.00000  -0.01677  -0.00468  -0.13856  -0.21419
  29        4PX         0.00000  -0.00180  -0.01387  -0.00008  -0.00018
  30        4PY         0.00000  -0.01317   0.00405   0.01249   0.02202
  31        4PZ        -0.02550   0.00000   0.00000   0.00000   0.00000
  32        5D 0        0.00000   0.00094  -0.00062   0.00077   0.00174
  33        5D+1        0.00057   0.00000   0.00000   0.00000   0.00000
  34        5D-1       -0.00289   0.00000   0.00000   0.00000   0.00000
  35        5D+2        0.00000   0.00179   0.00029  -0.00074  -0.00023
  36        5D-2        0.00000  -0.00039  -0.00235  -0.00012  -0.00021
  37 3   H  1S          0.00000   0.00453   0.01280  -0.00247  -0.00388
  38        2S          0.00000   0.00918   0.02068   0.00309   0.00569
  39        3S          0.00000   0.00776   0.00306  -0.00116  -0.00245
  40        4PX         0.00000  -0.00007   0.00220  -0.00188  -0.00274
  41        4PY         0.00000   0.00082  -0.00078   0.00304   0.00503
  42        4PZ        -0.00235   0.00000   0.00000   0.00000   0.00000
                          21        22        23        24        25
  21        2PX         0.06338
  22        2PY         0.00381   0.14431
  23        2PZ         0.00000   0.00000   0.10415
  24        3S          0.01125  -0.04064   0.00000   0.63505
  25        3PX         0.09460   0.00674   0.00000   0.01087   0.14125
  26        3PY         0.00549   0.19613   0.00000  -0.05436   0.00962
  27        3PZ         0.00000   0.00000   0.15327   0.00000   0.00000
  28        4S          0.00602  -0.12218   0.00000   0.58718   0.00297
  29        4PX         0.06377   0.00228   0.00000   0.00088   0.09530
  30        4PY        -0.00091   0.14453   0.00000  -0.07098  -0.00009
  31        4PZ         0.00000   0.00000   0.12736   0.00000   0.00000
  32        5D 0        0.00151  -0.00877   0.00000  -0.00626   0.00226
  33        5D+1        0.00000   0.00000  -0.00287   0.00000   0.00000
  34        5D-1        0.00000   0.00000   0.01443   0.00000   0.00000
  35        5D+2       -0.00355  -0.01649   0.00000  -0.00201  -0.00536
  36        5D-2        0.01030  -0.00177   0.00000   0.00088   0.01537
  37 3   H  1S         -0.05443   0.00618   0.00000   0.00843  -0.08128
  38        2S         -0.09044  -0.00164   0.00000  -0.02156  -0.13481
  39        3S         -0.01950  -0.05417   0.00000   0.00879  -0.02942
  40        4PX        -0.00876   0.00598   0.00000   0.00650  -0.01311
  41        4PY         0.00403   0.00169   0.00000  -0.01501   0.00618
  42        4PZ         0.00000   0.00000   0.01176   0.00000   0.00000
                          26        27        28        29        30
  26        3PY         0.26668
  27        3PZ         0.00000   0.22555
  28        4S         -0.16444   0.00000   0.62456
  29        4PX         0.00316   0.00000  -0.01058   0.06664
  30        4PY         0.19681   0.00000  -0.13483  -0.00584   0.15314
  31        4PZ         0.00000   0.18742   0.00000   0.00000   0.00000
  32        5D 0       -0.01192   0.00000   0.00030   0.00159  -0.00819
  33        5D+1        0.00000  -0.00422   0.00000   0.00000   0.00000
  34        5D-1        0.00000   0.02124   0.00000   0.00000   0.00000
  35        5D+2       -0.02246   0.00000   0.00844  -0.00336  -0.01588
  36        5D-2       -0.00234   0.00000   0.00217   0.01025  -0.00218
  37 3   H  1S          0.00752   0.00000  -0.01666  -0.04923  -0.00098
  38        2S         -0.00351   0.00000  -0.04530  -0.08286  -0.00852
  39        3S         -0.07414   0.00000   0.02657  -0.01517  -0.05933
  40        4PX         0.00804   0.00000  -0.00032  -0.00830   0.00490
  41        4PY         0.00219   0.00000  -0.01820   0.00534   0.00035
  42        4PZ         0.00000   0.01730   0.00000   0.00000   0.00000
                          31        32        33        34        35
  31        4PZ         0.15573
  32        5D 0        0.00000   0.00073
  33        5D+1       -0.00351   0.00000   0.00008
  34        5D-1        0.01765   0.00000  -0.00040   0.00200
  35        5D+2        0.00000   0.00102   0.00000   0.00000   0.00211
  36        5D-2        0.00000   0.00043   0.00000   0.00000  -0.00028
  37 3   H  1S          0.00000  -0.00266   0.00000   0.00000   0.00158
  38        2S          0.00000  -0.00297   0.00000   0.00000   0.00440
  39        3S          0.00000   0.00254   0.00000   0.00000   0.00699
  40        4PX         0.00000  -0.00082   0.00000   0.00000  -0.00037
  41        4PY         0.00000   0.00015   0.00000   0.00000  -0.00028
  42        4PZ         0.01437   0.00000  -0.00032   0.00163   0.00000
                          36        37        38        39        40
  36        5D-2        0.00173
  37 3   H  1S         -0.00951   0.06397
  38        2S         -0.01536   0.09927   0.15824
  39        3S         -0.00257   0.02332   0.04015   0.03199
  40        4PX        -0.00162   0.01031   0.01535   0.00154   0.00193
  41        4PY         0.00059  -0.00114  -0.00190   0.00005  -0.00038
  42        4PZ         0.00000   0.00000   0.00000   0.00000   0.00000
                          41        42
  41        4PY         0.00112
  42        4PZ         0.00000   0.00133
    Full Mulliken population analysis:
                           1         2         3         4         5
   1 1   C  1S          0.66297
   2        2S          0.49906   0.50253
   3        2PX         0.00000   0.00000   0.04684
   4        2PY         0.00000   0.00000   0.00000   0.12075
   5        2PZ         0.00000   0.00000   0.00000   0.00000   0.05731
   6        3S         -0.03528  -0.07672   0.00000   0.00000   0.00000
   7        3PX         0.00000   0.00000   0.04230   0.00000   0.00000
   8        3PY         0.00000   0.00000   0.00000   0.09726   0.00000
   9        3PZ         0.00000   0.00000   0.00000   0.00000   0.05335
  10        4S         -0.01768  -0.03451   0.00000   0.00000   0.00000
  11        4PX         0.00000   0.00000   0.00690   0.00000   0.00000
  12        4PY         0.00000   0.00000   0.00000   0.01408   0.00000
  13        4PZ         0.00000   0.00000   0.00000   0.00000   0.01328
  14        5D 0        0.00000   0.00000   0.00000   0.00000   0.00000
  15        5D+1        0.00000   0.00000   0.00000   0.00000   0.00000
  16        5D-1        0.00000   0.00000   0.00000   0.00000   0.00000
  17        5D+2        0.00000   0.00000   0.00000   0.00000   0.00000
  18        5D-2        0.00000   0.00000   0.00000   0.00000   0.00000
  19 2   N  1S          0.00000   0.00000   0.00000  -0.00015   0.00000
  20        2S          0.00000   0.00000   0.00000  -0.00018   0.00000
  21        2PX         0.00000   0.00000   0.00046   0.00000   0.00000
  22        2PY        -0.00010  -0.00007   0.00000   0.00665   0.00000
  23        2PZ         0.00000   0.00000   0.00000   0.00000   0.00067
  24        3S         -0.00030  -0.00034   0.00000   0.01256   0.00000
  25        3PX         0.00000   0.00000   0.00556   0.00000   0.00000
  26        3PY        -0.00264  -0.00440   0.00000   0.03544   0.00000
  27        3PZ         0.00000   0.00000   0.00000   0.00000   0.00796
  28        4S          0.00179   0.00424   0.00000   0.00696   0.00000
  29        4PX         0.00000   0.00000   0.00640   0.00000   0.00000
  30        4PY        -0.00188  -0.00307   0.00000   0.01043   0.00000
  31        4PZ         0.00000   0.00000   0.00000   0.00000   0.01174
  32        5D 0       -0.00013  -0.00019   0.00000   0.00105   0.00000
  33        5D+1        0.00000   0.00000   0.00000   0.00000   0.00000
  34        5D-1        0.00000   0.00000   0.00000   0.00000   0.00137
  35        5D+2       -0.00041  -0.00062   0.00000   0.00282   0.00000
  36        5D-2        0.00000   0.00000   0.00112   0.00000   0.00000
  37 3   H  1S         -0.00006  -0.00008   0.00265  -0.00006   0.00000
  38        2S         -0.00082  -0.00137   0.01114  -0.00085   0.00000
  39        3S          0.00010   0.00003   0.00118  -0.00130   0.00000
  40        4PX        -0.00022  -0.00029   0.00147   0.00054   0.00000
  41        4PY        -0.00010  -0.00017  -0.00023   0.00004   0.00000
  42        4PZ         0.00000   0.00000   0.00000   0.00000   0.00047
                           6         7         8         9        10
   6        3S          0.54951
   7        3PX         0.00000   0.09664
   8        3PY         0.00000   0.00000   0.19845
   9        3PZ         0.00000   0.00000   0.00000   0.12549
  10        4S          0.40002   0.00000   0.00000   0.00000   0.74575
  11        4PX         0.00000   0.02937   0.00000   0.00000   0.00000
  12        4PY         0.00000   0.00000   0.05431   0.00000   0.00000
  13        4PZ         0.00000   0.00000   0.00000   0.05832   0.00000
  14        5D 0        0.00000   0.00000   0.00000   0.00000   0.00000
  15        5D+1        0.00000   0.00000   0.00000   0.00000   0.00000
  16        5D-1        0.00000   0.00000   0.00000   0.00000   0.00000
  17        5D+2        0.00000   0.00000   0.00000   0.00000   0.00000
  18        5D-2        0.00000   0.00000   0.00000   0.00000   0.00000
  19 2   N  1S         -0.00022   0.00000  -0.00252   0.00000   0.00232
  20        2S         -0.00026   0.00000  -0.00417   0.00000   0.00405
  21        2PX         0.00000   0.00492   0.00000   0.00000   0.00000
  22        2PY         0.01068   0.00000   0.02487   0.00000  -0.00285
  23        2PZ         0.00000   0.00000   0.00000   0.00739   0.00000
  24        3S          0.00017   0.00000   0.04668   0.00000  -0.06051
  25        3PX         0.00000   0.02624   0.00000   0.00000   0.00000
  26        3PY         0.05080   0.00000   0.07523   0.00000  -0.01516
  27        3PZ         0.00000   0.00000   0.00000   0.03896   0.00000
  28        4S         -0.07625   0.00000   0.02252   0.00000  -0.16370
  29        4PX         0.00000   0.02828   0.00000   0.00000   0.00000
  30        4PY         0.02883   0.00000   0.02325   0.00000  -0.05576
  31        4PZ         0.00000   0.00000   0.00000   0.05418   0.00000
  32        5D 0        0.00097   0.00000   0.00086   0.00000  -0.00015
  33        5D+1        0.00000   0.00000   0.00000   0.00000   0.00000
  34        5D-1        0.00000   0.00000   0.00000   0.00423   0.00000
  35        5D+2        0.00321   0.00000   0.00238   0.00000  -0.00010
  36        5D-2        0.00000   0.00335   0.00000   0.00000   0.00000
  37 3   H  1S          0.00665   0.01972  -0.00063   0.00000   0.00431
  38        2S          0.01728   0.04881  -0.00366   0.00000   0.00917
  39        3S          0.00055   0.00624  -0.00603   0.00000   0.03962
  40        4PX         0.00267   0.00356   0.00139   0.00000  -0.00079
  41        4PY         0.00229  -0.00064   0.00072   0.00000   0.00225
  42        4PZ         0.00000   0.00000   0.00000   0.00254   0.00000
                          11        12        13        14        15
  11        4PX         0.02221
  12        4PY         0.00000   0.04269
  13        4PZ         0.00000   0.00000   0.06347
  14        5D 0        0.00000   0.00000   0.00000   0.00079
  15        5D+1        0.00000   0.00000   0.00000   0.00000   0.00015
  16        5D-1        0.00000   0.00000   0.00000   0.00000   0.00000
  17        5D+2        0.00000   0.00000   0.00000   0.00000   0.00000
  18        5D-2        0.00000   0.00000   0.00000   0.00000   0.00000
  19 2   N  1S          0.00000  -0.00007   0.00000  -0.00021   0.00000
  20        2S          0.00000  -0.00038   0.00000  -0.00032   0.00000
  21        2PX         0.00263   0.00000   0.00000   0.00000   0.00000
  22        2PY         0.00000   0.00122   0.00000   0.00090   0.00000
  23        2PZ         0.00000   0.00000   0.00607   0.00000   0.00000
  24        3S          0.00000   0.00870   0.00000   0.00194   0.00000
  25        3PX         0.01441   0.00000   0.00000   0.00000   0.00000
  26        3PY         0.00000   0.00344   0.00000   0.00140   0.00000
  27        3PZ         0.00000   0.00000   0.03302   0.00000   0.00000
  28        4S          0.00000   0.01129   0.00000   0.00033   0.00000
  29        4PX         0.02146   0.00000   0.00000   0.00000   0.00000
  30        4PY         0.00000  -0.00534   0.00000  -0.00027   0.00000
  31        4PZ         0.00000   0.00000   0.06295   0.00000   0.00000
  32        5D 0        0.00000  -0.00007   0.00000   0.00010   0.00000
  33        5D+1        0.00000   0.00000   0.00000   0.00000   0.00002
  34        5D-1        0.00000   0.00000   0.00139   0.00000   0.00000
  35        5D+2        0.00000  -0.00021   0.00000  -0.00002   0.00000
  36        5D-2        0.00073   0.00000   0.00000   0.00000   0.00000
  37 3   H  1S          0.01105  -0.00149   0.00000   0.00050   0.00000
  38        2S          0.03176  -0.00409   0.00000   0.00047   0.00000
  39        3S          0.00416  -0.00570   0.00000  -0.00006   0.00000
  40        4PX         0.00011   0.00011   0.00000   0.00012   0.00000
  41        4PY        -0.00011   0.00084   0.00000  -0.00002   0.00000
  42        4PZ         0.00000   0.00000   0.00224   0.00000   0.00013
                          16        17        18        19        20
  16        5D-1        0.00418
  17        5D+2        0.00000   0.00295
  18        5D-2        0.00000   0.00000   0.00320
  19 2   N  1S          0.00000  -0.00073   0.00000   0.65317
  20        2S          0.00000  -0.00113   0.00000   0.50881   0.51498
  21        2PX         0.00000   0.00000   0.00191   0.00000   0.00000
  22        2PY         0.00000   0.00252   0.00000   0.00000   0.00000
  23        2PZ         0.00286   0.00000   0.00000   0.00000   0.00000
  24        3S          0.00000   0.00744   0.00000  -0.04316  -0.08702
  25        3PX         0.00000   0.00000   0.00741   0.00000   0.00000
  26        3PY         0.00000   0.00396   0.00000   0.00000   0.00000
  27        3PZ         0.01095   0.00000   0.00000   0.00000   0.00000
  28        4S          0.00000   0.00230   0.00000  -0.02195  -0.03853
  29        4PX         0.00000   0.00000   0.00379   0.00000   0.00000
  30        4PY         0.00000  -0.00085   0.00000   0.00000   0.00000
  31        4PZ         0.00697   0.00000   0.00000   0.00000   0.00000
  32        5D 0        0.00000  -0.00002   0.00000   0.00000   0.00000
  33        5D+1        0.00000   0.00000   0.00000   0.00000   0.00000
  34        5D-1        0.00115   0.00000   0.00000   0.00000   0.00000
  35        5D+2        0.00000   0.00020   0.00000   0.00000   0.00000
  36        5D-2        0.00000   0.00000   0.00093   0.00000   0.00000
  37 3   H  1S          0.00000   0.00086   0.00269   0.00000   0.00000
  38        2S          0.00000   0.00142   0.00355   0.00011   0.00021
  39        3S          0.00000   0.00025   0.00011  -0.00006  -0.00015
  40        4PX         0.00000   0.00000   0.00058  -0.00004  -0.00006
  41        4PY         0.00000   0.00024   0.00009  -0.00004  -0.00007
  42        4PZ         0.00031   0.00000   0.00000   0.00000   0.00000
                          21        22        23        24        25
  21        2PX         0.06338
  22        2PY         0.00000   0.14431
  23        2PZ         0.00000   0.00000   0.10415
  24        3S          0.00000   0.00000   0.00000   0.63505
  25        3PX         0.05865   0.00000   0.00000   0.00000   0.14125
  26        3PY         0.00000   0.12160   0.00000   0.00000   0.00000
  27        3PZ         0.00000   0.00000   0.09503   0.00000   0.00000
  28        4S          0.00000   0.00000   0.00000   0.45027   0.00000
  29        4PX         0.01338   0.00000   0.00000   0.00000   0.06123
  30        4PY         0.00000   0.03032   0.00000   0.00000   0.00000
  31        4PZ         0.00000   0.00000   0.02671   0.00000   0.00000
  32        5D 0        0.00000   0.00000   0.00000   0.00000   0.00000
  33        5D+1        0.00000   0.00000   0.00000   0.00000   0.00000
  34        5D-1        0.00000   0.00000   0.00000   0.00000   0.00000
  35        5D+2        0.00000   0.00000   0.00000   0.00000   0.00000
  36        5D-2        0.00000   0.00000   0.00000   0.00000   0.00000
  37 3   H  1S          0.00080   0.00006   0.00000   0.00051   0.01089
  38        2S          0.00643  -0.00007   0.00000  -0.00502   0.03534
  39        3S          0.00073  -0.00124   0.00000   0.00281   0.00428
[...]
 Electronic spatial extent (au):  <R**2>=             47.4057
 Charge=              0.0000 electrons
 Dipole moment (field-independent basis, Debye):
    X=             -1.2404    Y=             -0.0664    Z=              0.0000  Tot=              1.2422
 Quadrupole moment (field-independent basis, Debye-Ang):
   XX=             -9.6281   YY=            -14.5432   ZZ=            -12.0805
   XY=             -0.1377   XZ=              0.0000   YZ=              0.0000
 Traceless Quadrupole moment (field-independent basis, Debye-Ang):
   XX=              2.4558   YY=             -2.4593   ZZ=              0.0034
   XY=             -0.1377   XZ=              0.0000   YZ=              0.0000
 Octapole moment (field-independent basis, Debye-Ang**2):
  XXX=             -2.1831  YYY=             -3.5440  ZZZ=              0.0000  XYY=             -0.0803
  XXY=             -0.8133  XXZ=              0.0000  XZZ=             -0.2080  YZZ=             -0.7760
  YYZ=              0.0000  XYZ=              0.0000
 Hexadecapole moment (field-independent basis, Debye-Ang**3):
 XXXX=            -12.6356 YYYY=            -43.3612 ZZZZ=            -11.9297 XXXY=             -0.1192
 XXXZ=              0.0000 YYYX=              0.1064 YYYZ=              0.0000 ZZZX=              0.0000
 ZZZY=              0.0000 XXYY=             -9.0857 XXZZ=             -4.5116 YYZZ=             -8.6893
 XXYZ=              0.0000 YYXZ=              0.0000 ZZXY=              0.0518
 N-N= 2.414555710887D+01 E-N=-2.660701865886D+02  KE= 9.307252180278D+01
 Symmetry A'   KE= 9.010908884959D+01
 Symmetry A"   KE= 2.963432953184D+00
 Orbital energies and kinetic energies (alpha):
                                 1                 2
   1         O               -14.385970         22.051540
   2         O               -10.240687         15.954045
   3         O                -1.006067          2.122400
   4         O                -0.524205          1.438958
   5         O                -0.467341          1.935692
   6         O                -0.396112          1.481716
   7         O                -0.343209          1.551909
   8         V                -0.051043          1.666684
   9         V                -0.000789          1.611617
  10         V                 0.023150          0.925564
  11         V                 0.218336          0.865256
  12         V                 0.298512          0.968485
  13         V                 0.395080          1.348531
  14         V                 0.406160          1.471695
  15         V                 0.524581          1.686252
  16         V                 0.536608          1.771033
  17         V                 0.629724          1.928709
  18         V                 0.636895          1.988545
  19         V                 0.723955          3.198394
  20         V                 0.993297          1.866189
  21         V                 1.030616          3.290016
  22         V                 1.270683          2.400529
  23         V                 1.352017          2.487663
  24         V                 1.405191          2.472380
  25         V                 1.541817          2.574804
  26         V                 1.696519          2.567892
  27         V                 1.881852          3.669507
  28         V                 2.036142          3.311299
  29         V                 2.139436          4.027011
  30         V                 2.235522          3.564523
  31         V                 2.392365          4.456828
  32         V                 2.433863          4.792471
  33         V                 2.695683          4.595400
  34         V                 2.727940          5.419761
  35         V                 2.844638          5.401310
  36         V                 2.978568          5.999433
  37         V                 3.132300          6.144589
  38         V                 3.712418          8.791524
  39         V                 3.882510          8.746763
  40         V                 4.319589          9.442234
  41         V                23.906885         60.459554
  42         V                35.511983         89.001713
 Total kinetic energy from orbitals= 9.307252180278D+01
  Exact polarizability:  14.199   0.250  18.065   0.000   0.000  10.361
 Approx polarizability:  21.188   0.567  33.258   0.000   0.000  14.094
 No NMR shielding tensors so no spin-rotation constants.
 Leave Link  601 at Thu Apr 14 13:06:40 2016, MaxMem=   104857600 cpu:         0.1
 (Enter /home/projets/algogen/g09.D01/g09/l701.exe)
 Compute integral second derivatives.
 ... and contract with generalized density number  0.
 Leave Link  701 at Thu Apr 14 13:06:40 2016, MaxMem=   104857600 cpu:         0.2
 (Enter /home/projets/algogen/g09.D01/g09/l702.exe)
 L702 exits ... SP integral derivatives will be done elsewhere.
 Leave Link  702 at Thu Apr 14 13:06:40 2016, MaxMem=   104857600 cpu:         0.0
 (Enter /home/projets/algogen/g09.D01/g09/l703.exe)
 Compute integral second derivatives, UseDBF=F ICtDFT=           0.
 Integral derivatives from FoFJK, PRISM(SPDF).
 Calling FoFJK, ICntrl=    100127 FMM=F ISym2X=1 I1Cent= 0 IOpClX= 0 NMat=1 NMatS=1 NMatT=0.
 FoFJK:  IHMeth= 1 ICntrl=  100127 DoSepK=F KAlg= 0 I1Cent=   0 FoldK=F
 IRaf=         0 NMat=   1 IRICut=       1 DoRegI=T DoRafI=F ISym2E= 1.
 FoFCou: FMM=F IPFlag=           0 FMFlag=      100000 FMFlg1=         800
         NFxFlg=           0 DoJE=F BraDBF=F KetDBF=F FulRan=T
         wScrn=  0.000000 ICntrl=  100127 IOpCl=  0 I1Cent=           0 NGrid=           0
         NMat0=    1 NMatS0=      1 NMatT0=    0 NMatD0=    1 NMtDS0=    0 NMtDT0=    0
 Petite list used in FoFCou.
 Leave Link  703 at Thu Apr 14 13:06:42 2016, MaxMem=   104857600 cpu:         1.2
 (Enter /home/projets/algogen/g09.D01/g09/l716.exe)
 Dipole        =-4.88028036D-01-2.61386259D-02 2.20877808D-32
 Polarizability= 1.41986539D+01 2.49853215D-01 1.80649820D+01
                -4.76703507D-10 1.07494532D-12 1.03607906D+01
 Full mass-weighted force constant matrix:
 Low frequencies ----1009.6506 -185.7080    0.0005    0.0008    0.0011   35.3064
 Low frequencies ---  224.9347 2048.6804 2521.9821
 ******    1 imaginary frequencies (negative Signs) ****** 
 Diagonal vibrational polarizability:
        0.6738649       1.0820449       0.0000000
 Harmonic frequencies (cm**-1), IR intensities (KM/Mole), Raman scattering
 activities (A**4/AMU), depolarization ratios for plane and unpolarized
 incident light, reduced masses (AMU), force constants (mDyne/A),
 and normal coordinates:
                      1                      2                      3
                     A'                     A'                     A'
 Frequencies --  -1009.6506              2048.6635              2521.9365
 Red. masses --      1.1657                11.4565                 1.0589
 Frc consts  --      0.7001                28.3299                 3.9680
 IR Inten    --     39.8602                19.5993               136.5949
  Atom  AN      X      Y      Z        X      Y      Z        X      Y      Z
     1   6     0.07   0.05   0.00    -0.03   0.70   0.00     0.06   0.02   0.00
     2   7    -0.07   0.02   0.00     0.01  -0.62   0.00     0.02  -0.01   0.00
     3   1     0.17  -0.98   0.00     0.23   0.25   0.00    -0.99  -0.13   0.00

 -------------------
 - Thermochemistry -
 -------------------
 Temperature   298.150 Kelvin.  Pressure   1.00000 Atm.
 Atom     1 has atomic number  6 and mass  12.00000
 Atom     2 has atomic number  7 and mass  14.00307
 Atom     3 has atomic number  1 and mass   1.00783
 Molecular mass:    27.01090 amu.
 Principal axes and moments of inertia in atomic units:
                           1         2         3
     Eigenvalues --     4.30392  32.59836  36.90228
           X           -0.01939   0.99981   0.00000
           Y            0.99981   0.01939   0.00000
           Z            0.00000   0.00000   1.00000
 This molecule is an asymmetric top.
 Rotational symmetry number  1.
 Rotational temperatures (Kelvin)     20.12442     2.65700     2.34711
 Rotational constants (GHZ):         419.32535    55.36294    48.90595
    1 imaginary frequencies ignored.
 Zero-point vibrational energy      27338.3 (Joules/Mol)
                                    6.53400 (Kcal/Mol)
 Vibrational temperatures:   2947.57  3628.50
          (Kelvin)
 
 Zero-point correction=                           0.010413 (Hartree/Particle)
 Thermal correction to Energy=                    0.013246
 Thermal correction to Enthalpy=                  0.014190
 Thermal correction to Gibbs Free Energy=        -0.010573
 Sum of electronic and zero-point Energies=            -93.365922
 Sum of electronic and thermal Energies=               -93.363089
 Sum of electronic and thermal Enthalpies=             -93.362145
 Sum of electronic and thermal Free Energies=          -93.386908
 
                     E (Thermal)             CV                S
                      KCal/Mol        Cal/Mol-Kelvin    Cal/Mol-Kelvin
 Total                    8.312              5.973             52.118
 Electronic               0.000              0.000              0.000
 Translational            0.889              2.981             35.816
 Rotational               0.889              2.981             16.300
 Vibrational              6.534              0.011              0.001
                       Q            Log10(Q)             Ln(Q)
 Total Bot       0.729862D+05          4.863241         11.198026
 Total V=0       0.449460D+10          9.652691         22.226142
 Vib (Bot)       0.162396D-04         -4.789426        -11.028060
 Vib (V=0)       0.100006D+01          0.000024          0.000056
 Electronic      0.100000D+01          0.000000          0.000000
 Translational   0.551777D+07          6.741764         15.523485
 Rotational      0.814522D+03          2.910903          6.702601
 
                                                           point 3 forward
                                                             IR Spectrum
 
     2                       2                                                                                                       
     5                       0                                                                                                       
     2                       4                                                                                                       
     2                       9                                                                                                       
 
     X                       X                                                                                                       
     X                       X                                                                                                       
     X                       X                                                                                                       
     X                                                                                                                               
     X                                                                                                                               
     X                                                                                                                               
     X                                                                                                                               
     X                                                                                                                               
     X                                                                                                                               
     X                                                                                                                               
     X                                                                                                                               
     X                                                                                                                               
     X                                                                                                                               
     X                                                                                                                               
     X                                                                                                                               
     X                                                                                                                               
     X                                                                                                                               
     X                                                                                                                               
     X                                                                                                                               
     X                                                                                                                               
 
 ***** Axes restored to original set *****
 -------------------------------------------------------------------
 Center     Atomic                   Forces (Hartrees/Bohr)
 Number     Number              X              Y              Z
 -------------------------------------------------------------------
      1        6          -0.007409113    0.000000000   -0.005714073
      2        7           0.008850835    0.000000000   -0.003072473
      3        1          -0.001441722    0.000000000    0.008786545
 -------------------------------------------------------------------
 Cartesian Forces:  Max     0.008850835 RMS     0.005318781
 Z-matrix is all fixed cartesians, so copy forces.
 Force constants in Cartesian coordinates: 
                1             2             3             4             5 
      1  0.879367D-01
      2  0.000000D+00 -0.460913D-02
      3 -0.257901D-02  0.000000D+00  0.990079D+00
      4  0.750806D-01  0.000000D+00  0.398660D-01 -0.116603D-01
      5  0.000000D+00  0.113246D-02  0.000000D+00  0.000000D+00  0.312105D-02
      6 -0.405372D-02  0.000000D+00 -0.103337D+01  0.134827D-02  0.000000D+00
      7 -0.163017D+00  0.000000D+00 -0.372870D-01 -0.634203D-01  0.000000D+00
      8  0.000000D+00  0.347667D-02  0.000000D+00  0.000000D+00 -0.425351D-02
      9  0.663273D-02  0.000000D+00  0.432942D-01 -0.412142D-01  0.000000D+00
                6             7             8             9 
      6  0.104887D+01
      7  0.270545D-02  0.226438D+00
      8  0.000000D+00  0.000000D+00  0.776832D-03
      9 -0.154962D-01  0.345815D-01  0.000000D+00 -0.277980D-01
 Leave Link  716 at Thu Apr 14 13:06:42 2016, MaxMem=   104857600 cpu:         0.0
 (Enter /home/projets/algogen/g09.D01/g09/l103.exe)

 GradGradGradGradGradGradGradGradGradGradGradGradGradGradGradGradGradGrad
 Berny optimization.
 Search for a local minimum.
 Step number   1 out of a maximum of    2
 All quantities printed in internal units (Hartrees-Bohrs-Radians)
 Second derivative matrix not updated -- analytic derivatives used.
 The second derivative matrix:
                          X1        Y1        Z1        X2        Y2
           X1           0.08794
           Y1           0.00000  -0.00461
           Z1          -0.00258   0.00000   0.99008
           X2           0.07508   0.00000   0.03987  -0.01166
           Y2           0.00000   0.00113   0.00000   0.00000   0.00312
           Z2          -0.00405   0.00000  -1.03337   0.00135   0.00000
           X3          -0.16302   0.00000  -0.03729  -0.06342   0.00000
           Y3           0.00000   0.00348   0.00000   0.00000  -0.00425
           Z3           0.00663   0.00000   0.04329  -0.04121   0.00000
                          Z2        X3        Y3        Z3
           Z2           1.04887
           X3           0.00271   0.22644
           Y3           0.00000   0.00000   0.00078
           Z3          -0.01550   0.03458   0.00000  -0.02780
 ITU=  0
     Eigenvalues ---   -0.08447   0.32126   2.05054
 Eigenvalue     1 is  -8.45D-02 should be greater than     0.000000 Eigenvector:
                          Z3        X2        X1        X3        Z1
   1                    0.84770   0.33102  -0.27798  -0.19491  -0.18610
                          Z2        Y2        Y3        Y1
   1                   -0.14810   0.00000   0.00000   0.00000
 Angle between quadratic step and forces=  26.50 degrees.
 ClnCor:  largest displacement from symmetrization is 8.58D-17 for atom     3.
 Linear search not attempted -- first point.
 ClnCor:  largest displacement from symmetrization is 1.11D-15 for atom     3.
 TrRot=  0.009831  0.000000 -0.015338  0.000000  0.022197  0.000000
 Variable       Old X    -DE/DX   Delta X   Delta X   Delta X     New X
                                 (Linear)    (Quad)   (Total)
    X1       -0.09370  -0.00741   0.00000  -0.04815  -0.06556  -0.15926
    Y1        0.00000   0.00000   0.00000   0.00000   0.00000   0.00000
    Z1       -1.19693  -0.00571   0.00000  -0.03205  -0.04394  -1.24087
    X2       -0.06557   0.00885   0.00000   0.05537   0.08788   0.02231
    Y2        0.00000   0.00000   0.00000   0.00000   0.00000   0.00000
    Z2        1.04612  -0.00307   0.00000  -0.02458  -0.03994   1.00618
    X3        2.02671  -0.00144   0.00000  -0.02854  -0.02231   2.00439
    Y3        0.00000   0.00000   0.00000   0.00000   0.00000   0.00000
    Z3       -0.28350   0.00879   0.00000   0.14353   0.08388  -0.19962
         Item               Value     Threshold  Converged?
 Maximum Force            0.008851     0.000450     NO 
 RMS     Force            0.005319     0.000300     NO 
 Maximum Displacement     0.087876     0.001800     NO 
 RMS     Displacement     0.050640     0.001200     NO 
 Predicted change in Energy=-3.595240D-03
 GradGradGradGradGradGradGradGradGradGradGradGradGradGradGradGradGradGrad

 Leave Link  103 at Thu Apr 14 13:06:42 2016, MaxMem=   104857600 cpu:         0.0
 (Enter /home/projets/algogen/g09.D01/g09/l9999.exe)

 Test job not archived.
 1\1\GINC-ROMEO90\Freq\RB3LYP\6-311G(d,p)\C1H1N1\ROOT\14-Apr-2016\0\\#P
  B3LYP 6-311G** FREQ # POP=full GFINPUT IOP(6/7=3)\\point 3 forward\\0
 ,1\C,-0.049584,0.,-0.633387\N,-0.034698,0.,0.553581\H,1.072487,0.,-0.1
 5002\\Version=ES64L-G09RevD.01\State=1-A'\HF=-93.3763346\RMSD=3.400e-0
 9\RMSF=5.319e-03\ZeroPoint=0.0104126\Thermal=0.0132457\Dipole=0.488317
 4,0.,0.0200166\DipoleDeriv=-0.2615564,0.,0.0697274,0.,-0.1461131,0.,0.
 2291465,0.,0.037169,-0.1080796,0.,0.0090515,0.,-0.085302,0.,-0.268167,
 0.,-0.2463894,0.369636,0.,-0.0787788,0.,0.2314151,0.,0.0390205,0.,0.20
 92204\Polar=14.2055278,0.,10.3607906,0.2982554,0.,18.0581081\PG=CS [SG
 (C1H1N1)]\NImag=1\\0.08793670,0.,-0.00460913,-0.00257901,0.,0.99007899
 ,0.07508057,0.,0.03986597,-0.01166029,0.,0.00113246,0.,0.,0.00312105,-
 0.00405372,0.,-1.03337315,0.00134827,0.,1.04886935,-0.16301727,0.,-0.0
 3728695,-0.06342028,0.,0.00270545,0.22643754,0.,0.00347667,0.,0.,-0.00
 425351,0.,0.,0.00077683,0.00663273,0.,0.04329416,-0.04121423,0.,-0.015
 49620,0.03458150,0.,-0.02779796\\0.00740911,0.,0.00571407,-0.00885083,
 0.,0.00307247,0.00144172,0.,-0.00878655\\\@


 ANYONE WHO IS NOT SHOCKED BY QUANTUM THEORY HAS
 NOT UNDERSTOOD IT. -- NIELS BOHR(1885-1962)
 Job cpu time:       0 days  0 hours  0 minutes  5.0 seconds.
 File lengths (MBytes):  RWF=      5 Int=      0 D2E=      0 Chk=      1 Scr=      1
 Normal termination of Gaussian 09 at Thu Apr 14 13:06:42 2016.
************
total 116
drwxrwxr-x 2 henon henon   4096 14 avril 13:06 .
drwxrwxr-x 3 henon henon   4096 14 avril 13:06 ..
-rw-r--r-- 1 henon henon    265 14 avril 13:06 for3.inp
-rw-rw-r-- 1 henon henon 104635 14 avril 13:06 for3.out
Run on 1 cores
romeo90
************
