----- GAMESS execution script 'rungms' -----
This job is running on host chimie-106
under operating system Linux at jeudi 11 avril 2019, 09:34:09 (UTC+0200)
Available scratch disk space (Kbyte units) at beginning of the job is
Sys. de fichiers blocs de 1K  Utilisé Disponible Uti% Monté sur
/dev/sda2          483487264 16129768  442774688   4% /
GAMESS temporary binary files will be written to /tmp
GAMESS supplementary output files will be written to /tmp
Copying input file ch3cn.inp to your run's scratch directory...
 
Assuming a single but multicore node.
 

 Distributed Data Interface kickoff program.
 Initiating 4 compute processes on 1 nodes to run the following command:
 /usr/local/lib/gamess/gamess.00.x ch3cn 

          ******************************************************
          *         GAMESS VERSION = 14 FEB 2018 (R1)         *
          *             FROM IOWA STATE UNIVERSITY             *
          * M.W.SCHMIDT, K.K.BALDRIDGE, J.A.BOATZ, S.T.ELBERT, *
          *   M.S.GORDON, J.H.JENSEN, S.KOSEKI, N.MATSUNAGA,   *
          *          K.A.NGUYEN, S.J.SU, T.L.WINDUS,           *
          *       TOGETHER WITH M.DUPUIS, J.A.MONTGOMERY       *
          *         J.COMPUT.CHEM.  14, 1347-1363(1993)        *
          **************** 64 BIT LINUX VERSION ****************

  SINCE 1993, STUDENTS AND POSTDOCS WORKING AT IOWA STATE UNIVERSITY
  AND ALSO IN THEIR VARIOUS JOBS AFTER LEAVING ISU HAVE MADE IMPORTANT
  CONTRIBUTIONS TO THE CODE:
     IVANA ADAMOVIC, CHRISTINE AIKENS, YURI ALEXEEV, POOJA ARORA,
     ANDREY ASADCHEV, ROB BELL, PRADIPTA BANDYOPADHYAY, JONATHAN BENTZ,
     BRETT BODE, KURT BRORSEN, CALEB CARLIN, GALINA CHABAN, WEI CHEN,
     CHEOL HO CHOI, PAUL DAY, ALBERT DEFUSCO, NUWAN DESILVA, TIM DUDLEY,
     DMITRI FEDOROV, ALEX FINDLATER, GRAHAM FLETCHER, MARK FREITAG,
     KURT GLAESEMANN, ANASTASIA GUININA,
     DAN KEMP, GRANT MERRILL, NORIYUKI MINEZAWA, JONATHAN MULLIN,
     TAKESHI NAGATA, SEAN NEDD, HEATHER NETZLOFF, BOSILJKA NJEGIC, RYAN OLSON,
     MIKE PAK, BUU PHAM,
     SPENCER PRUITT, LUKE ROSKOP, JIM SHOEMAKER, LYUDMILA SLIPCHENKO,
     TONY SMITH, SAROM SOK LEANG, JIE SONG, TETSUYA TAKETSUGU, SIMON WEBB,
     PENG XU, SOOHAENG YOO, FEDERICO ZAHARIEV

  ADDITIONAL CODE HAS BEEN PROVIDED BY COLLABORATORS IN OTHER GROUPS:
     IOWA STATE UNIVERSITY:
          JOE IVANIC, AARON WEST, LAIMUTIS BYTAUTAS, KLAUS RUEDENBERG
     UNIVERSITY OF TOKYO: KIMIHIKO HIRAO, TAKAHITO NAKAJIMA,
          TAKAO TSUNEDA, MUNEAKI KAMIYA, SUSUMU YANAGISAWA,
          KIYOSHI YAGI, MAHITO CHIBA, SEIKEN TOKURA, NAOAKI KAWAKAMI
     UNIVERSITY OF AARHUS: FRANK JENSEN
     UNIVERSITY OF IOWA: VISVALDAS KAIRYS, HUI LI
     NATIONAL INST. OF STANDARDS AND TECHNOLOGY: WALT STEVENS, DAVID GARMER
     UNIVERSITY OF PISA: BENEDETTA MENNUCCI, JACOPO TOMASI
     UNIVERSITY OF MEMPHIS: HENRY KURTZ, PRAKASHAN KORAMBATH
     UNIVERSITY OF ALBERTA: TOBY ZENG, MARIUSZ KLOBUKOWSKI
     UNIVERSITY OF NEW ENGLAND: MARK SPACKMAN
     MIE UNIVERSITY: HIROAKI UMEDA
     NAT. INST. OF ADVANCED INDUSTRIAL SCIENCE AND TECHNOLOGY: KAZUO KITAURA
     MICHIGAN STATE UNIVERSITY:
          KAROL KOWALSKI, MARTA WLOCH, JEFFREY GOUR, JESSE LUTZ,
          WEI LI, PIOTR PIECUCH
     UNIVERSITY OF SILESIA: MONIKA MUSIAL, STANISLAW KUCHARSKI
     FACULTES UNIVERSITAIRES NOTRE-DAME DE LA PAIX:
          OLIVIER QUINET, BENOIT CHAMPAGNE
     UNIVERSITY OF CALIFORNIA - SANTA BARBARA: BERNARD KIRTMAN
     INSTITUTE FOR MOLECULAR SCIENCE:
          KAZUYA ISHIMURA, MICHIO KATOUDA, AND SHIGERU NAGASE
     UNIVERSITY OF NOTRE DAME: ANNA POMOGAEVA, DAN CHIPMAN
     KYUSHU UNIVERSITY:
          HARUYUKI NAKANO,
          FENG LONG GU, JACEK KORCHOWIEC, MARCIN MAKOWSKI, AND YURIKO AOKI,
          HIROTOSHI MORI AND EISAKU MIYOSHI
     PENNSYLVANIA STATE UNIVERSITY:
          TZVETELIN IORDANOV, CHET SWALINA, JONATHAN SKONE,
          SHARON HAMMES-SCHIFFER
     WASEDA UNIVERSITY:
          MASATO KOBAYASHI, TOMOKO AKAMA, TSUGUKI TOUMA,
          TAKESHI YOSHIKAWA, YASUHIRO IKABATA, JUNJI SEINO,
          YUYA NAKAJIMA, HIROMI NAKAI
     NANJING UNIVERSITY: SHUHUA LI
     UNIVERSITY OF NEBRASKA:
          PEIFENG SU, DEJUN SI, NANDUN THELLAMUREGE, YALI WANG, HUI LI
     UNIVERSITY OF ZURICH: ROBERTO PEVERATI, KIM BALDRIDGE
     N. COPERNICUS UNIVERSITY AND JACKSON STATE UNIVERSITY:
          MARIA BARYSZ
     UNIVERSITY OF COPENHAGEN: Jimmy Kromann, CASPER STEINMANN
     TOKYO INSTITUTE OF TECHNOLOGY: HIROYA NAKATA
     NAGOYA UNIVERSITY: YOSHIO NISHIMOTO, STEPHAN IRLE
     MOSCOW STATE UNIVERSITY: VLADIMIR MIRONOV


 PARALLEL VERSION RUNNING ON        4 PROCESSORS IN        1 NODES.

 EXECUTION OF GAMESS BEGUN Thu Apr 11 09:34:09 2019

            ECHO OF THE FIRST FEW INPUT CARDS -
 INPUT CARD> $CONTRL SCFTYP=RHF RUNTYP=HESSIAN  MPLEVL=2 $END                               
 INPUT CARD> $BASIS GBASIS=N31 NGAUSS=6 NDFUNC=1 NPFUNC=1 $END                              
 INPUT CARD> $DATA                                                                          
 INPUT CARD>acetonitrile geometry and frequencies using RHF with 6-31G(d,p) and MP2         
 INPUT CARD>C1                                                                              
 INPUT CARD>C   6.0     0.00    0.00     0.00                                               
 INPUT CARD>H   1.0     0.99    0.33    -0.38                                               
 INPUT CARD>C   6.0     0.00   -0.00     1.46                                               
 INPUT CARD>H   1.0    -0.21   -1.02    -0.37                                               
 INPUT CARD>H   1.0    -0.78    0.70    -0.37                                               
 INPUT CARD>N   7.0    -0.00    0.00     2.62                                               
 INPUT CARD> $END                                                                           
    1000000 WORDS OF MEMORY AVAILABLE

     BASIS OPTIONS
     -------------
     GBASIS=N31          IGAUSS=       6      POLAR=POPN31  
     NDFUNC=       1     NFFUNC=       0     DIFFSP=       F
     NPFUNC=       1      DIFFS=       F     BASNAM=        


     RUN TITLE
     ---------
 acetonitrile geometry and frequencies using RHF with 6-31G(d,p) and MP2         

 THE POINT GROUP OF THE MOLECULE IS C1      
 THE ORDER OF THE PRINCIPAL AXIS IS     0

 ATOM      ATOMIC                      COORDINATES (BOHR)
           CHARGE         X                   Y                   Z
 C           6.0     0.0000000000        0.0000000000        0.0000000000
 H           1.0     1.8708287278        0.6236095759       -0.7180958753
 C           6.0     0.0000000000       -0.0000000000        2.7589999421
 H           1.0    -0.3968424574       -1.9275205075       -0.6991986155
 H           1.0    -1.4739862704        1.3228081914       -0.6991986155
 N           7.0    -0.0000000000        0.0000000000        4.9510820878

          INTERNUCLEAR DISTANCES (ANGS.)
          ------------------------------

                1 C          2 H          3 C          4 H          5 H     

   1 C       0.0000000    1.1105854 *  1.4600000 *  1.1051697 *  1.1114405 *
   2 H       1.1105854 *  0.0000000    2.1153250 *  1.8062669 *  1.8082865 *
   3 C       1.4600000 *  2.1153250 *  0.0000000    2.1055641 *  2.1088623 *
   4 H       1.1051697 *  1.8062669 *  2.1055641 *  0.0000000    1.8119879 *
   5 H       1.1114405 *  1.8082865 *  2.1088623 *  1.8119879 *  0.0000000  
   6 N       2.6200000 *  3.1763186    1.1600000 *  3.1661649    3.1683592  

                6 N     

   1 C       2.6200000 *
   2 H       3.1763186  
   3 C       1.1600000 *
   4 H       3.1661649  
   5 H       3.1683592  
   6 N       0.0000000  

  * ... LESS THAN  3.000


     ATOMIC BASIS SET
     ----------------
 THE CONTRACTED PRIMITIVE FUNCTIONS HAVE BEEN UNNORMALIZED
 THE CONTRACTED BASIS FUNCTIONS ARE NOW NORMALIZED TO UNITY

  SHELL TYPE  PRIMITIVE        EXPONENT          CONTRACTION COEFFICIENT(S)

 C         

      1   S       1          3047.5248800    0.001834737132
      1   S       2           457.3695180    0.014037322813
      1   S       3           103.9486850    0.068842622264
      1   S       4            29.2101553    0.232184443216
      1   S       5             9.2866630    0.467941348435
      1   S       6             3.1639270    0.362311985337

      2   L       7             7.8682723   -0.119332419775    0.068999066591
      2   L       8             1.8812885   -0.160854151696    0.316423960957
      2   L       9             0.5442493    1.143456437840    0.744308290898

      3   L      10             0.1687145    1.000000000000    1.000000000000

      4   D      11             0.8000000    1.000000000000

 H         

      5   S      12            18.7311370    0.033494604338
      5   S      13             2.8253944    0.234726953484
      5   S      14             0.6401217    0.813757326146

      6   S      15             0.1612778    1.000000000000

      7   P      16             1.1000000    1.000000000000

 C         

      8   S      17          3047.5248800    0.001834737132
      8   S      18           457.3695180    0.014037322813
      8   S      19           103.9486850    0.068842622264
      8   S      20            29.2101553    0.232184443216
      8   S      21             9.2866630    0.467941348435
      8   S      22             3.1639270    0.362311985337

      9   L      23             7.8682723   -0.119332419775    0.068999066591
      9   L      24             1.8812885   -0.160854151696    0.316423960957
      9   L      25             0.5442493    1.143456437840    0.744308290898

     10   L      26             0.1687145    1.000000000000    1.000000000000

     11   D      27             0.8000000    1.000000000000

 H         

     12   S      28            18.7311370    0.033494604338
     12   S      29             2.8253944    0.234726953484
     12   S      30             0.6401217    0.813757326146

     13   S      31             0.1612778    1.000000000000

     14   P      32             1.1000000    1.000000000000

 H         

     15   S      33            18.7311370    0.033494604338
     15   S      34             2.8253944    0.234726953484
     15   S      35             0.6401217    0.813757326146

     16   S      36             0.1612778    1.000000000000

     17   P      37             1.1000000    1.000000000000

 N         

     18   S      38          4173.5114600    0.001834772160
     18   S      39           627.4579110    0.013994627002
     18   S      40           142.9020930    0.068586551812
     18   S      41            40.2343293    0.232240873040
     18   S      42            12.8202129    0.469069948082
     18   S      43             4.3904370    0.360455199063

     19   L      44            11.6263619   -0.114961181702    0.067579743878
     19   L      45             2.7162798   -0.169117478561    0.323907295893
     19   L      46             0.7722184    1.145851947027    0.740895139755

     20   L      47             0.2120315    1.000000000000    1.000000000000

     21   D      48             0.8000000    1.000000000000

 TOTAL NUMBER OF BASIS SET SHELLS             =   21
 NUMBER OF CARTESIAN GAUSSIAN BASIS FUNCTIONS =   60
 NUMBER OF ELECTRONS                          =   22
 CHARGE OF MOLECULE                           =    0
 SPIN MULTIPLICITY                            =    1
 NUMBER OF OCCUPIED ORBITALS (ALPHA)          =   11
 NUMBER OF OCCUPIED ORBITALS (BETA )          =   11
 TOTAL NUMBER OF ATOMS                        =    6
 THE NUCLEAR REPULSION ENERGY IS       58.1770444511

     $CONTRL OPTIONS
     ---------------
 SCFTYP=RHF          RUNTYP=HESSIAN      EXETYP=RUN     
 MPLEVL=       2     CITYP =NONE         CCTYP =NONE         VBTYP =NONE    
 DFTTYP=NONE         TDDFT =NONE    
 MULT  =       1     ICHARG=       0     NZVAR =       0     COORD =UNIQUE  
 PP    =NONE         RELWFN=NONE         LOCAL =NONE         NUMGRD=       F
 ISPHER=      -1     NOSYM =       0     MAXIT =      30     UNITS =ANGS    
 PLTORB=       F     MOLPLT=       F     AIMPAC=       F     FRIEND=        
 NPRINT=       7     IREST =       0     GEOM  =INPUT   
 NORMF =       0     NORMP =       0     ITOL  =      20     ICUT  =       9
 INTTYP=BEST         GRDTYP=BEST         QMTTOL= 1.0E-06

     $SYSTEM OPTIONS
     ---------------
  REPLICATED MEMORY=     1000000 WORDS (ON EVERY NODE).
 DISTRIBUTED MEMDDI=           0 MILLION WORDS IN AGGREGATE,
 MEMDDI DISTRIBUTED OVER   4 PROCESSORS IS           0 WORDS/PROCESSOR.
 TOTAL MEMORY REQUESTED ON EACH PROCESSOR=     1000000 WORDS.
 TIMLIM=      525600.00 MINUTES, OR     365.0 DAYS.
 PARALL= T  BALTYP=  DLB     KDIAG=    0  COREFL= F
 MXSEQ2=     300 MXSEQ3=     150  mem10=         0

          ----------------
          PROPERTIES INPUT
          ----------------

     MOMENTS            FIELD           POTENTIAL          DENSITY
 IEMOM =       1   IEFLD =       0   IEPOT =       0   IEDEN =       0
 WHERE =COMASS     WHERE =NUCLEI     WHERE =NUCLEI     WHERE =NUCLEI  
 OUTPUT=BOTH       OUTPUT=BOTH       OUTPUT=BOTH       OUTPUT=BOTH    
 IEMINT=       0   IEFINT=       0                     IEDINT=       0
                                                       MORB  =       0
          EXTRAPOLATION IN EFFECT
          SOSCF IN EFFECT
 ORBITAL PRINTING OPTION: NPREO=     1    60     2     1

     -------------------------------
     INTEGRAL TRANSFORMATION OPTIONS
     -------------------------------
     NWORD  =            0
     CUTOFF = 1.0E-09     MPTRAN =       0
     DIRTRF =       F     AOINTS =DUP     

          ----------------------
          INTEGRAL INPUT OPTIONS
          ----------------------
 NOPK  =       1 NORDER=       0 SCHWRZ=       T

          -----------------------
          MP2 CONTROL INFORMATION
          -----------------------
          NACORE =        3  NBCORE =        3
          LMOMP2 =        F  AOINTS = DUP     
          METHOD =        2  NWORD  =               0
          MP2PRP =        F  OSPT   = NONE    
          CUTOFF = 1.00E-09  CPHFBS = BASISAO 
          CODE   = DDI     

          NUMBER OF CORE -A-  ORBITALS =     3
          NUMBER OF CORE -B-  ORBITALS =     3
          NUMBER OF OCC. -A-  ORBITALS =    11
          NUMBER OF OCC. -B-  ORBITALS =    11
          NUMBER OF MOLECULAR ORBITALS =    60
          NUMBER OF   BASIS  FUNCTIONS =    60


     ------------------------------------------
     THE POINT GROUP IS C1 , NAXIS= 0, ORDER= 1
     ------------------------------------------

     DIMENSIONS OF THE SYMMETRY SUBSPACES ARE
 A   =   60

 ..... DONE SETTING UP THE RUN .....
 CPU     0: STEP CPU TIME=     0.00 TOTAL CPU TIME=          0.0 (      0.0 MIN)
 TOTAL WALL CLOCK TIME=          0.0 SECONDS, CPU UTILIZATION IS   100.00%

     ---------------------------------
     HESSIAN MATRIX CONTROL PARAMETERS
     ---------------------------------
     METHOD=SEMINUM    NVIB  =       2   VIBSIZ= 0.01000
     RDHESS=       F   PURIFY=       F   PRTIFC=       F
     VIBANL=       T   DECOMP=       F   PROJCT=       F
     SCLFAC= 1.00000   PRTSCN=       F   NPRT  =       0
     PULCOR=       F   NPUN  =       0   REDOVB=       T
     HSSTYP=GENERAL 
     THERMOCHEMISTRY WILL BE PRINTED FOR    1 TEMPERATURES:
      298.15000
1   ATOM  0
                                        -------------------
   COORD  0                             NUCLEAR COORDINATES
                                        -------------------
     VIB  0

                       ATOM             X              Y              Z

                 1  C                0.000000       0.000000       0.000000
                 2  H                1.870829       0.623610      -0.718096
                 3  C                0.000000      -0.000000       2.759000
                 4  H               -0.396842      -1.927521      -0.699199
                 5  H               -1.473986       1.322808      -0.699199
                 6  N               -0.000000       0.000000       4.951082

          ********************
          1 ELECTRON INTEGRALS
          ********************
 ...... END OF ONE-ELECTRON INTEGRALS ......
 CPU     0: STEP CPU TIME=     0.00 TOTAL CPU TIME=          0.0 (      0.0 MIN)
 TOTAL WALL CLOCK TIME=          0.0 SECONDS, CPU UTILIZATION IS     0.00%

          -------------
          GUESS OPTIONS
          -------------
          GUESS =HUCKEL            NORB  =       0          NORDER=       0
          MIX   =       F          PRTMO =       F          PUNMO =       F
          TOLZ  = 1.0E-08          TOLE  = 1.0E-05
          SYMDEN=       F          PURIFY=       F

 INITIAL GUESS ORBITALS GENERATED BY HUCKEL   ROUTINE.
 HUCKEL GUESS REQUIRES     32106 WORDS.

 SYMMETRIES FOR INITIAL GUESS ORBITALS FOLLOW.   BOTH SET(S).
    11 ORBITALS ARE OCCUPIED (    3 CORE ORBITALS).
     4=A        5=A        6=A        7=A        8=A        9=A       10=A   
    11=A       12=A       13=A       14=A       15=A       16=A       17=A   
    18=A       19=A       20=A       21=A   
 ...... END OF INITIAL ORBITAL SELECTION ......
 CPU     0: STEP CPU TIME=     0.01 TOTAL CPU TIME=          0.0 (      0.0 MIN)
 TOTAL WALL CLOCK TIME=          0.0 SECONDS, CPU UTILIZATION IS   100.00%

                    ----------------------
                    AO INTEGRAL TECHNOLOGY
                    ----------------------
     S,P,L SHELL ROTATED AXIS INTEGRALS, REPROGRAMMED BY
        KAZUYA ISHIMURA (IMS) AND JOSE SIERRA (SYNSTAR).
     S,P,D,L SHELL ROTATED AXIS INTEGRALS PROGRAMMED BY
        KAZUYA ISHIMURA (INSTITUTE FOR MOLECULAR SCIENCE).
     S,P,D,F,G SHELL TO TOTAL QUARTET ANGULAR MOMENTUM SUM 5,
        ERIC PROGRAM BY GRAHAM FLETCHER (ELORET AND NASA ADVANCED
        SUPERCOMPUTING DIVISION, AMES RESEARCH CENTER).
     S,P,D,F,G,L SHELL GENERAL RYS QUADRATURE PROGRAMMED BY
        MICHEL DUPUIS (PACIFIC NORTHWEST NATIONAL LABORATORY).

          --------------------
          2 ELECTRON INTEGRALS
          --------------------

 THE -PK- OPTION IS OFF, THE INTEGRALS ARE NOT IN SUPERMATRIX FORM.
 STORING   15000 INTEGRALS/RECORD ON DISK, USING 12 BYTES/INTEGRAL.
 TWO ELECTRON INTEGRAL EVALUATION REQUIRES   90627 WORDS OF MEMORY.
 SCHWARZ INEQUALITY OVERHEAD:      1829 INTEGRALS, T=        0.00
 II,JST,KST,LST =  1  1  1  1 NREC =         1 INTLOC =    1
 II,JST,KST,LST =  2  1  1  1 NREC =         1 INTLOC =    1
 II,JST,KST,LST =  3  1  1  1 NREC =         1 INTLOC =    1
 II,JST,KST,LST =  4  1  1  1 NREC =         1 INTLOC =  128
 II,JST,KST,LST =  5  1  1  1 NREC =         1 INTLOC =  407
 II,JST,KST,LST =  6  1  1  1 NREC =         1 INTLOC = 1802
 II,JST,KST,LST =  7  1  1  1 NREC =         1 INTLOC = 3197
 II,JST,KST,LST =  8  1  1  1 NREC =         1 INTLOC = 4547
 II,JST,KST,LST =  9  1  1  1 NREC =         1 INTLOC = 5542
 II,JST,KST,LST = 10  1  1  1 NREC =         1 INTLOC =13566
 II,JST,KST,LST = 11  1  1  1 NREC =         2 INTLOC =13102
 II,JST,KST,LST = 12  1  1  1 NREC =         3 INTLOC =11106
 II,JST,KST,LST = 13  1  1  1 NREC =         4 INTLOC =10831
 II,JST,KST,LST = 14  1  1  1 NREC =         5 INTLOC = 6715
 II,JST,KST,LST = 15  1  1  1 NREC =         7 INTLOC = 3185
 II,JST,KST,LST = 16  1  1  1 NREC =         8 INTLOC = 6388
 II,JST,KST,LST = 17  1  1  1 NREC =         9 INTLOC = 1476
 II,JST,KST,LST = 18  1  1  1 NREC =        11 INTLOC =12870
 II,JST,KST,LST = 19  1  1  1 NREC =        12 INTLOC = 2414
 II,JST,KST,LST = 20  1  1  1 NREC =        16 INTLOC = 2224
 II,JST,KST,LST = 21  1  1  1 NREC =        20 INTLOC = 1649
 SCHWARZ INEQUALITY TEST SKIPPED        1886 INTEGRAL BLOCKS.
 TOTAL NUMBER OF NONZERO TWO-ELECTRON INTEGRALS =             1178617
         81 INTEGRAL RECORDS WERE STORED ON DISK FILE  8.
  ...... END OF TWO-ELECTRON INTEGRALS .....
 CPU     0: STEP CPU TIME=     0.03 TOTAL CPU TIME=          0.0 (      0.0 MIN)
 TOTAL WALL CLOCK TIME=          0.1 SECONDS, CPU UTILIZATION IS    80.00%

          --------------------------
                 RHF SCF CALCULATION
          --------------------------

     NUCLEAR ENERGY =        58.1770444511
     MAXIT =   30     NPUNCH=    2
     EXTRAP=T  DAMP=F  SHIFT=F  RSTRCT=F  DIIS=F  DEM=F  SOSCF=T
     DENSITY MATRIX CONV=  1.00E-06
     SOSCF WILL OPTIMIZE     539 ORBITAL ROTATIONS, SOGTOL=   0.250
     MEMORY REQUIRED FOR RHF ITERS=     58196 WORDS.

 ITER EX DEM     TOTAL ENERGY        E CHANGE  DENSITY CHANGE     ORB. GRAD
   1  0  0     -131.4795696474  -131.4795696474   0.428854644   0.000000000
          ---------------START SECOND ORDER SCF---------------
   2  1  0     -131.8194778421    -0.3399081947   0.328006298   0.090992522
   3  2  0     -131.8416475990    -0.0221697568   0.151670576   0.082390959
   4  3  0     -131.9284575607    -0.0868099617   0.029714879   0.008044208
   5  4  0     -131.9292881404    -0.0008305797   0.005863920   0.002219721
   6  5  0     -131.9293579812    -0.0000698408   0.001879405   0.000536049
   7  6  0     -131.9293615644    -0.0000035832   0.000272714   0.000097261
   8  7  0     -131.9293616848    -0.0000001205   0.000073391   0.000019363
   9  8  0     -131.9293616925    -0.0000000077   0.000010518   0.000006189
  10  9  0     -131.9293616929    -0.0000000004   0.000002222   0.000001487
  11 10  0     -131.9293616929    -0.0000000000   0.000001179   0.000000314
  12 11  0     -131.9293616929    -0.0000000000   0.000000393   0.000000089

          -----------------
          DENSITY CONVERGED
          -----------------
     TIME TO FORM FOCK OPERATORS=       0.0 SECONDS (       0.0 SEC/ITER)
     TIME TO SOLVE SCF EQUATIONS=       0.0 SECONDS (       0.0 SEC/ITER)

 FINAL RHF ENERGY IS     -131.9293616929 AFTER  12 ITERATIONS

          ------------
          EIGENVECTORS
          ------------

                      1          2          3          4          5
                  -15.5773   -11.2923   -11.2827    -1.2151    -1.0344
                     A          A          A          A          A   
    1  C  1  S    0.000001   0.995066  -0.038596  -0.034862  -0.184410
    2  C  1  S   -0.000199   0.028094  -0.001215   0.068962   0.349801
    3  C  1  X    0.000000   0.000001   0.000001  -0.000038  -0.000171
    4  C  1  Y   -0.000000   0.000003   0.000001  -0.000095  -0.000855
    5  C  1  Z    0.000300   0.000648  -0.000436   0.033904   0.045296
    6  C  1  S    0.002598  -0.015869   0.009774  -0.019103   0.343470
    7  C  1  X   -0.000001  -0.000006   0.000006  -0.000012   0.000031
    8  C  1  Y    0.000000  -0.000001   0.000003   0.000000   0.000016
    9  C  1  Z    0.001085  -0.001696   0.004188  -0.025935   0.016093
   10  C  1 XX    0.000022  -0.001569  -0.000274  -0.001390  -0.002522
   11  C  1 YY    0.000022  -0.001561  -0.000277  -0.001339  -0.002269
   12  C  1 ZZ    0.000377  -0.001543  -0.001137   0.006260   0.004965
   13  C  1 XY    0.000000   0.000000   0.000001  -0.000007   0.000002
   14  C  1 XZ   -0.000000  -0.000003   0.000001  -0.000008  -0.000098
   15  C  1 YZ    0.000000   0.000001  -0.000000  -0.000001   0.000002
   16  H  2  S   -0.000039   0.000139  -0.000254   0.017097   0.115284
   17  H  2  S   -0.000026   0.002351   0.000114   0.000056   0.028702
   18  H  2  X    0.000009   0.000169  -0.000075  -0.001485  -0.010396
   19  H  2  Y    0.000003   0.000056  -0.000025  -0.000497  -0.003482
   20  H  2  Z    0.000008  -0.000018   0.000077   0.000514   0.004738
   21  C  3  S    0.000075   0.038104   0.994813  -0.155687  -0.042154
   22  C  3  S    0.000155   0.001224   0.027322   0.289599   0.090312
   23  C  3  X    0.000000  -0.000001  -0.000002  -0.000037  -0.000043
   24  C  3  Y   -0.000000  -0.000000  -0.000000  -0.000017  -0.000081
   25  C  3  Z   -0.000901   0.000057  -0.000512   0.183678  -0.227084
   26  C  3  S    0.002784   0.004706  -0.005147   0.100142   0.049350
   27  C  3  X   -0.000000   0.000010  -0.000001  -0.000036  -0.000087
   28  C  3  Y   -0.000000   0.000004  -0.000001  -0.000022  -0.000092
   29  C  3  Z    0.004884  -0.002689   0.011370  -0.110355  -0.012429
   30  C  3 XX    0.000124  -0.000280  -0.002792  -0.016753  -0.002248
   31  C  3 YY    0.000124  -0.000282  -0.002792  -0.016742  -0.002223
   32  C  3 ZZ   -0.001320  -0.001048  -0.000235   0.025764   0.017933
   33  C  3 XY   -0.000000   0.000000   0.000000  -0.000001  -0.000006
   34  C  3 XZ    0.000000  -0.000002   0.000001  -0.000002   0.000013
   35  C  3 YZ    0.000000  -0.000000   0.000000   0.000003   0.000025
   36  H  4  S   -0.000038   0.000133  -0.000250   0.017335   0.116779
   37  H  4  S   -0.000028   0.002373   0.000122   0.000049   0.028940
   38  H  4  X   -0.000002  -0.000035   0.000016   0.000318   0.002236
   39  H  4  Y   -0.000009  -0.000165   0.000080   0.001539   0.010821
   40  H  4  Z    0.000008  -0.000020   0.000084   0.000488   0.004725
   41  H  5  S   -0.000038   0.000139  -0.000252   0.017155   0.115276
   42  H  5  S   -0.000028   0.002347   0.000121   0.000070   0.028756
   43  H  5  X   -0.000007  -0.000134   0.000058   0.001173   0.008193
   44  H  5  Y    0.000006   0.000118  -0.000053  -0.001054  -0.007363
   45  H  5  Z    0.000008  -0.000022   0.000084   0.000482   0.004668
   46  N  6  S    0.995349   0.000011  -0.000802  -0.176321   0.059694
   47  N  6  S    0.024521   0.000248   0.000416   0.348433  -0.125811
   48  N  6  X   -0.000001   0.000001   0.000000   0.000012  -0.000044
   49  N  6  Y   -0.000000   0.000000   0.000000   0.000004  -0.000031
   50  N  6  Z   -0.002618  -0.000251  -0.000006  -0.179761   0.047248
   51  N  6  S   -0.006566   0.000111  -0.009726   0.406154  -0.120330
   52  N  6  X    0.000000  -0.000004   0.000000   0.000011   0.000018
   53  N  6  Y    0.000000  -0.000002   0.000001   0.000007   0.000022
   54  N  6  Z    0.002477   0.000231   0.003348  -0.081062   0.010584
   55  N  6 XX   -0.003212   0.000030   0.000219  -0.014255   0.004881
   56  N  6 YY   -0.003211   0.000030   0.000219  -0.014252   0.004878
   57  N  6 ZZ   -0.001680   0.000202   0.000483   0.017300  -0.008406
   58  N  6 XY   -0.000000   0.000000  -0.000000  -0.000001   0.000002
   59  N  6 XZ   -0.000000   0.000000  -0.000000  -0.000001   0.000004
   60  N  6 YZ   -0.000000   0.000000  -0.000000  -0.000001   0.000004

                      6          7          8          9         10
                   -0.6930    -0.6241    -0.6217    -0.5498    -0.4552
                     A          A          A          A          A   
    1  C  1  S    0.043639  -0.000286   0.000329  -0.007181  -0.000047
    2  C  1  S   -0.076386   0.000149  -0.000614   0.013872   0.000250
    3  C  1  X   -0.003390   0.015547   0.417318   0.001418  -0.018605
    4  C  1  Y    0.002435   0.418491  -0.014999  -0.000046  -0.138267
    5  C  1  Z    0.373859  -0.001353   0.002435   0.145394   0.000018
    6  C  1  S   -0.169969   0.002762  -0.001123   0.077137  -0.000503
    7  C  1  X   -0.001633   0.007854   0.215252   0.000814  -0.013893
    8  C  1  Y    0.000802   0.214635  -0.007862  -0.000096  -0.103946
    9  C  1  Z    0.127299  -0.000449   0.000867   0.097520   0.000026
   10  C  1 XX   -0.014391   0.016626   0.010501  -0.005428  -0.008071
   11  C  1 YY   -0.014510  -0.016460  -0.010945  -0.005517   0.008065
   12  C  1 ZZ    0.032643  -0.000035   0.000469   0.007522  -0.000042
   13  C  1 XY   -0.000254  -0.012431   0.019086   0.000053   0.004842
   14  C  1 XZ    0.000242  -0.000336  -0.006539   0.000044   0.002304
   15  C  1 YZ   -0.000046  -0.006552   0.000144  -0.000005   0.016812
   16  H  2  S   -0.117422   0.088113   0.232967  -0.029371  -0.048290
   17  H  2  S   -0.075650   0.065999   0.175599  -0.026256  -0.047422
   18  H  2  X    0.007927  -0.005316  -0.008665   0.001570   0.002040
   19  H  2  Y    0.002689   0.004114  -0.005098   0.000513  -0.001153
   20  H  2  Z    0.002361   0.002388   0.006445   0.001680  -0.000460
   21  C  3  S   -0.117104   0.000404  -0.001403   0.052585   0.000030
   22  C  3  S    0.244671  -0.000783   0.003064  -0.113412  -0.000061
   23  C  3  X   -0.000820   0.005608   0.158666   0.001023   0.047553
   24  C  3  Y    0.000555   0.156812  -0.005925  -0.000117   0.354620
   25  C  3  Z   -0.243103   0.000518  -0.001750  -0.282890   0.000109
   26  C  3  S    0.262871  -0.000940   0.003347  -0.025568  -0.000352
   27  C  3  X   -0.000197   0.002212   0.063745   0.000541   0.032265
   28  C  3  Y    0.000232   0.062532  -0.002403  -0.000050   0.240751
   29  C  3  Z   -0.122736   0.001166  -0.001005   0.034879  -0.000281
   30  C  3 XX   -0.005982   0.001137   0.000634   0.003938  -0.000667
   31  C  3 YY   -0.005985  -0.001088  -0.000778   0.003931   0.000653
   32  C  3 ZZ    0.013583  -0.000060   0.000117   0.011168   0.000026
   33  C  3 XY   -0.000014  -0.000852   0.001280   0.000004   0.000385
   34  C  3 XZ    0.000039  -0.000194  -0.005351   0.000002   0.004668
   35  C  3 YZ   -0.000051  -0.005517   0.000203  -0.000007   0.034951
   36  H  4  S   -0.116307  -0.246513  -0.042860  -0.029899   0.109623
   37  H  4  S   -0.074823  -0.183887  -0.032300  -0.026728   0.106958
   38  H  4  X   -0.001728  -0.003069   0.005431  -0.000313   0.000849
   39  H  4  Y   -0.008082  -0.010005  -0.002973  -0.001610   0.003472
   40  H  4  Z    0.002540  -0.006686  -0.001117   0.001740   0.000998
   41  H  5  S   -0.112189   0.160389  -0.193347  -0.030267  -0.061649
   42  H  5  S   -0.072445   0.120130  -0.145918  -0.027153  -0.060412
   43  H  5  X   -0.006044   0.008159  -0.003596  -0.001235  -0.002580
   44  H  5  Y    0.005399  -0.001194   0.008355   0.001120   0.000192
   45  H  5  Z    0.002608   0.004297  -0.005183   0.001706  -0.000545
   46  N  6  S    0.067716  -0.000255   0.000976  -0.101421  -0.000015
   47  N  6  S   -0.151212   0.000642  -0.002149   0.228869   0.000005
   48  N  6  X   -0.000488   0.003628   0.103786   0.000697   0.057230
   49  N  6  Y    0.000290   0.101876  -0.003891  -0.000143   0.427800
   50  N  6  Z   -0.072256   0.000578  -0.002224   0.500918  -0.000087
   51  N  6  S   -0.162302   0.000113  -0.003245   0.373738   0.000371
   52  N  6  X   -0.000311   0.002087   0.059458   0.000396   0.037340
   53  N  6  Y    0.000130   0.058263  -0.002218  -0.000094   0.279156
   54  N  6  Z   -0.050903   0.000536  -0.001205   0.295123  -0.000164
   55  N  6 XX    0.001768  -0.000060  -0.000047   0.008804  -0.000021
   56  N  6 YY    0.001767   0.000090   0.000051   0.008804   0.000002
   57  N  6 ZZ    0.001216  -0.000012   0.000126  -0.037871  -0.000003
   58  N  6 XY    0.000002   0.000056  -0.000087  -0.000001   0.000003
   59  N  6 XZ    0.000076  -0.000479  -0.013587  -0.000089  -0.005306
   60  N  6 YZ   -0.000042  -0.013399   0.000508   0.000013  -0.039615

                     11         12         13         14         15
                   -0.4549     0.2000     0.2010     0.2190     0.3170
                     A          A          A          A          A   
    1  C  1  S   -0.000093   0.001354  -0.004272  -0.146313  -0.000918
    2  C  1  S    0.000163  -0.001146   0.004686   0.152379   0.000750
    3  C  1  X   -0.139804  -0.114177  -0.007749  -0.001320   0.237729
    4  C  1  Y    0.018653  -0.006690   0.111264  -0.001340  -0.250393
    5  C  1  Z   -0.000461   0.000537  -0.002685  -0.077109   0.000811
    6  C  1  S    0.000300  -0.020216   0.057081   2.177392   0.025496
    7  C  1  X   -0.105114  -0.636198  -0.041196  -0.006024   0.964729
    8  C  1  Y    0.014121  -0.040150   0.634813  -0.015593  -1.027768
    9  C  1  Z   -0.000252   0.004203  -0.014128  -0.544169   0.005793
   10  C  1 XX   -0.004174   0.007250  -0.009129  -0.006566   0.000484
   11  C  1 YY    0.004317  -0.007298   0.008702  -0.007123  -0.000217
   12  C  1 ZZ   -0.000153   0.000333  -0.000190  -0.006258  -0.000242
   13  C  1 XY   -0.009423   0.010542   0.008335  -0.000113  -0.002908
   14  C  1 XZ    0.016864  -0.039218  -0.002474  -0.000304  -0.016920
   15  C  1 YZ   -0.002209  -0.002553   0.039311  -0.001215   0.017686
   16  H  2  S   -0.099730   0.126105  -0.033134  -0.003774   0.009112
   17  H  2  S   -0.098093   0.929668  -0.270110  -1.112074  -0.684109
   18  H  2  X    0.002807  -0.004692   0.000878   0.000989   0.003173
   19  H  2  Y    0.001850  -0.001225   0.001480   0.000336  -0.007569
   20  H  2  Z   -0.000988  -0.005716   0.001468  -0.001932  -0.003976
   21  C  3  S    0.000205  -0.000611   0.000549   0.018206   0.000858
   22  C  3  S   -0.000444   0.000453   0.001257   0.050653  -0.000586
   23  C  3  X    0.353844  -0.328012  -0.020983  -0.001531  -0.149106
   24  C  3  Y   -0.047386  -0.021112   0.330206  -0.010569   0.154235
   25  C  3  Z    0.000908  -0.001396   0.000858   0.024970   0.001700
   26  C  3  S   -0.001183   0.008281  -0.021094  -0.792230  -0.015005
   27  C  3  X    0.240322  -0.497218  -0.031953  -0.003137  -0.525927
   28  C  3  Y   -0.032202  -0.032013   0.502584  -0.017706   0.550906
   29  C  3  Z    0.000113  -0.001110  -0.010130  -0.441646   0.008276
   30  C  3 XX   -0.000367   0.002690  -0.003296   0.000884   0.001606
   31  C  3 YY    0.000354  -0.002698   0.003336   0.000550  -0.001619
   32  C  3 ZZ   -0.000012  -0.000185   0.000543   0.019489   0.000098
   33  C  3 XY   -0.000781   0.003899   0.003097  -0.000022  -0.009079
   34  C  3 XZ    0.034959   0.038352   0.002432   0.000151   0.006334
   35  C  3 YZ   -0.004700   0.002471  -0.038314   0.001092  -0.006604
   36  H  4  S    0.008231  -0.034510   0.124259  -0.009621   0.012457
   37  H  4  S    0.008203  -0.243792   0.886173  -1.159943  -0.935276
   38  H  4  X   -0.001868  -0.001588   0.000593  -0.000347   0.007212
   39  H  4  Y    0.000658  -0.000985   0.004790  -0.001253  -0.002565
   40  H  4  Z    0.000073   0.001563  -0.005956  -0.001738  -0.005433
   41  H  5  S    0.092253  -0.091592  -0.092533  -0.004240  -0.019108
   42  H  5  S    0.090827  -0.661822  -0.707352  -1.114521   1.602374
   43  H  5  X    0.001546  -0.003247  -0.002112  -0.000814   0.000572
   44  H  5  Y   -0.002869   0.001637   0.003121   0.000616  -0.001476
   45  H  5  Z    0.000843   0.004223   0.004343  -0.002020   0.009673
   46  N  6  S   -0.000007   0.000240  -0.000747  -0.028702  -0.000250
   47  N  6  S    0.000009  -0.000500   0.000620   0.022398   0.000997
   48  N  6  X    0.427295   0.336706   0.021318   0.001305   0.146030
   49  N  6  Y   -0.057358   0.021823  -0.337900   0.010371  -0.152092
   50  N  6  Z   -0.000576   0.000893  -0.001631  -0.058211  -0.001142
   51  N  6  S    0.000151  -0.002517   0.017878   0.722365  -0.001120
   52  N  6  X    0.278921   0.526682   0.033570   0.002671   0.331650
   53  N  6  Y   -0.037446   0.034018  -0.529979   0.017123  -0.346175
   54  N  6  Z   -0.000433   0.001895  -0.008253  -0.325686  -0.001259
   55  N  6 XX   -0.000032   0.000504  -0.000913  -0.013356   0.000345
   56  N  6 YY   -0.000011  -0.000403   0.000227  -0.013436  -0.000284
   57  N  6 ZZ    0.000045  -0.000078   0.000116   0.004523   0.000201
   58  N  6 XY   -0.000015   0.000662   0.000537   0.000002  -0.001732
   59  N  6 XZ   -0.039551   0.005511   0.000357   0.000012   0.003214
   60  N  6 YZ    0.005302   0.000353  -0.005603   0.000204  -0.003252

                     16         17         18         19         20
                    0.3177     0.3647     0.4329     0.7396     0.7404
                     A          A          A          A          A   
    1  C  1  S    0.000357   0.062827  -0.063288   0.000533   0.000457
    2  C  1  S    0.000039  -0.071591  -0.245278   0.000703   0.001823
    3  C  1  X   -0.250775   0.002735  -0.002367  -0.454304   0.210421
    4  C  1  Y   -0.238034  -0.000230  -0.000675  -0.209210  -0.454276
    5  C  1  Z    0.000293  -0.290266  -0.307612  -0.003764  -0.002469
    6  C  1  S   -0.005296  -1.013369   4.158054  -0.024836  -0.017049
    7  C  1  X   -1.018007   0.011897  -0.007677   1.029149  -0.474882
    8  C  1  Y   -0.977348  -0.004556  -0.001021   0.483175   1.045235
    9  C  1  Z   -0.006811  -1.803146   2.331852  -0.014589   0.003452
   10  C  1 XX    0.002350  -0.018574  -0.015065  -0.054158  -0.031507
   11  C  1 YY   -0.002492  -0.019047  -0.015048   0.054201   0.031424
   12  C  1 ZZ    0.000106   0.027978  -0.020178   0.000031   0.000377
   13  C  1 XY    0.000742   0.000081   0.000090  -0.036345   0.062789
   14  C  1 XZ    0.017790  -0.000061  -0.000081  -0.007354   0.003607
   15  C  1 YZ    0.016761   0.000135  -0.000072  -0.003456  -0.007947
   16  H  2  S   -0.018926  -0.066241   0.027466  -0.364223   0.042639
   17  H  2  S    1.460356  -0.322364  -0.207327  -0.314659   0.033584
   18  H  2  X   -0.000044  -0.002592  -0.004908   0.028365  -0.013481
   19  H  2  Y   -0.004037  -0.000911  -0.001620   0.013494   0.029539
   20  H  2  Z    0.008531  -0.011205  -0.004630  -0.001681   0.000222
   21  C  3  S   -0.000666  -0.121586   0.021930  -0.000776  -0.000362
   22  C  3  S    0.001102   0.084474  -0.171576   0.000413   0.001543
   23  C  3  X    0.156791  -0.000359   0.000182  -0.670186   0.309637
   24  C  3  Y    0.146179   0.000509  -0.000281  -0.309335  -0.669961
   25  C  3  Z   -0.001450  -0.238811   0.129895  -0.000437  -0.001212
   26  C  3  S    0.003189   2.755596   1.538227   0.002995  -0.007822
   27  C  3  X    0.554395  -0.004210   0.002363   0.349942  -0.163086
   28  C  3  Y    0.523396   0.001670  -0.000076   0.159144   0.347705
   29  C  3  Z   -0.015184  -0.696974   5.520051  -0.030085  -0.010166
   30  C  3 XX    0.007826   0.006925  -0.003285  -0.009796  -0.005768
   31  C  3 YY   -0.007851   0.006918  -0.003422   0.010489   0.006350
   32  C  3 ZZ    0.000055  -0.010942  -0.047177  -0.001008  -0.000568
   33  C  3 XY    0.001788  -0.000086   0.000067  -0.006701   0.011914
   34  C  3 XZ   -0.006574  -0.000035   0.000064  -0.002485   0.001083
   35  C  3 YZ   -0.006179  -0.000038   0.000021  -0.001213  -0.002484
   36  H  4  S    0.016549  -0.068297   0.027412   0.219207   0.295758
   37  H  4  S   -1.339468  -0.306005  -0.225042   0.193119   0.271304
   38  H  4  X   -0.005447   0.000525   0.000975   0.028890  -0.013779
   39  H  4  Y   -0.000299   0.002633   0.005248   0.012956   0.028509
   40  H  4  Z   -0.007968  -0.010938  -0.004653   0.000619   0.001054
   41  H  5  S    0.000987  -0.068407   0.026762   0.147296  -0.334770
   42  H  5  S   -0.127262  -0.287714  -0.224587   0.119511  -0.295483
   43  H  5  X   -0.006060   0.001919   0.003696   0.029241  -0.012900
   44  H  5  Y   -0.006695  -0.001807  -0.003433   0.013769   0.029502
   45  H  5  Z   -0.000860  -0.010818  -0.004561   0.000464  -0.001312
   46  N  6  S   -0.000133   0.052453   0.119351  -0.000214  -0.000174
   47  N  6  S   -0.000634  -0.151892   0.014929  -0.000079   0.000208
   48  N  6  X   -0.153367   0.000778  -0.000466  -0.090678   0.042623
   49  N  6  Y   -0.143967  -0.000357   0.000066  -0.041531  -0.091533
   50  N  6  Z    0.000486   0.175851   0.009740   0.002238   0.001280
   51  N  6  S    0.011760  -0.469310  -5.254017   0.022284   0.011013
   52  N  6  X   -0.349135   0.002158  -0.001118   0.167205  -0.077088
   53  N  6  Y   -0.328456  -0.000960   0.000157   0.077982   0.168549
   54  N  6  Z   -0.003481   0.438908   1.944108  -0.008889  -0.005897
   55  N  6 XX    0.001300   0.003298   0.067060  -0.001036  -0.000602
   56  N  6 YY   -0.001685   0.003302   0.067031   0.000747   0.000489
   57  N  6 ZZ   -0.000092  -0.034166  -0.009291   0.000728   0.000461
   58  N  6 XY    0.000332  -0.000018   0.000013  -0.000581   0.001058
   59  N  6 XZ   -0.003387  -0.000021  -0.000003   0.066937  -0.030922
   60  N  6 YZ   -0.003089  -0.000022   0.000021   0.030930   0.066979

                     21         22         23         24         25
                    0.7935     0.8332     0.8340     0.8847     1.0116
                     A          A          A          A          A   
    1  C  1  S   -0.024702   0.000468   0.000676  -0.021893   0.070056
    2  C  1  S    0.239579   0.002565   0.005513   0.088746   0.005408
    3  C  1  X    0.002992   0.172577  -0.554147  -0.003106  -0.007692
    4  C  1  Y    0.000441  -0.553902  -0.169614  -0.002619  -0.004400
    5  C  1  Z    0.719334   0.002077   0.002965   0.330112  -0.200217
    6  C  1  S    1.304062  -0.006837  -0.013626   0.924889   1.398627
    7  C  1  X   -0.003551  -0.480110   1.555204   0.009500   0.010779
    8  C  1  Y   -0.002828   1.565088   0.483459   0.006736   0.006008
    9  C  1  Z   -0.202839   0.001929  -0.014313   0.049544   1.756900
   10  C  1 XX    0.009841  -0.037207  -0.048061  -0.010881   0.011867
   11  C  1 YY    0.010034   0.037273   0.048884  -0.010283   0.008256
   12  C  1 ZZ    0.001339   0.000444   0.000676   0.039624   0.143150
   13  C  1 XY    0.000095   0.055626  -0.043363   0.000019  -0.000066
   14  C  1 XZ    0.000136   0.001058  -0.002300   0.000037  -0.003190
   15  C  1 YZ    0.000045  -0.003075  -0.000595   0.000001  -0.002122
   16  H  2  S   -0.083909  -0.004258  -0.294732  -0.072707   0.338053
   17  H  2  S   -0.033699  -0.009472  -0.395779  -0.020469   0.232818
   18  H  2  X    0.012175  -0.011022   0.034120  -0.000952   0.026743
   19  H  2  Y    0.004038   0.035983   0.010774  -0.000200   0.008252
   20  H  2  Z   -0.004544  -0.000993  -0.046149  -0.006395  -0.042411
   21  C  3  S    0.083782   0.000098   0.000022   0.035239   0.001790
   22  C  3  S    0.172823   0.005116   0.007620  -0.801074   1.134381
   23  C  3  X   -0.005931  -0.192210   0.622279   0.001578   0.000917
   24  C  3  Y   -0.007141   0.623095   0.192381   0.001185   0.000396
   25  C  3  Z    0.083433  -0.000774   0.000537  -0.553336  -0.669836
   26  C  3  S    1.803610   0.003195   0.021182  -0.222226  -2.694407
   27  C  3  X    0.007364   0.379069  -1.230568  -0.004803  -0.001368
   28  C  3  Y    0.008926  -1.232212  -0.381462  -0.003617   0.000920
   29  C  3  Z    2.921019   0.010440   0.004822   1.373875   2.752104
   30  C  3 XX   -0.049935  -0.009085  -0.011647  -0.067379   0.084473
   31  C  3 YY   -0.049986   0.009445   0.012038  -0.067204   0.085182
   32  C  3 ZZ    0.263973   0.001273   0.002324  -0.000933   0.073213
   33  C  3 XY    0.000008   0.013797  -0.010560  -0.000036  -0.000176
   34  C  3 XZ   -0.000399  -0.012939   0.041418   0.000160   0.000291
   35  C  3 YZ   -0.000263   0.041495   0.012666   0.000129   0.000266
   36  H  4  S   -0.083757   0.261643   0.146108  -0.069706   0.312193
   37  H  4  S   -0.031795   0.354980   0.191577  -0.013091   0.275920
   38  H  4  X   -0.002552  -0.011317   0.035138   0.000500  -0.005493
   39  H  4  Y   -0.012526   0.033961   0.009958   0.001696  -0.025921
   40  H  4  Z   -0.004363   0.040083   0.021688  -0.005589  -0.040842
   41  H  5  S   -0.083517  -0.251787   0.155967  -0.071387   0.326269
   42  H  5  S   -0.031058  -0.339386   0.198970  -0.013391   0.253618
   43  H  5  X   -0.009417  -0.010299   0.035214   0.001361  -0.020658
   44  H  5  Y    0.008460   0.035659   0.011487  -0.000872   0.017495
   45  H  5  Z   -0.004457  -0.039647   0.023454  -0.005966  -0.041187
   46  N  6  S    0.052130   0.000268   0.000576  -0.049781  -0.000625
   47  N  6  S   -0.175211  -0.001260  -0.002552   0.007616  -0.159421
   48  N  6  X   -0.001311  -0.086344   0.283148   0.001583  -0.010084
   49  N  6  Y   -0.002003   0.281128   0.087917   0.001008  -0.007576
   50  N  6  Z   -0.444621  -0.001777  -0.003498   0.191818  -0.008600
   51  N  6  S   -2.896012  -0.009251  -0.012601  -0.221314  -0.708816
   52  N  6  X    0.000382  -0.007303   0.022325  -0.000101   0.010033
   53  N  6  Y    0.000601   0.024459   0.007135   0.000082   0.006773
   54  N  6  Z    1.853789   0.008074   0.016393  -1.086545  -0.010930
   55  N  6 XX   -0.012357  -0.001212  -0.001733   0.048435  -0.023228
   56  N  6 YY   -0.012357   0.000749   0.000753   0.048465  -0.023017
   57  N  6 ZZ   -0.183136  -0.000716  -0.001249  -0.102056  -0.074987
   58  N  6 XY   -0.000003   0.001456  -0.001104  -0.000010  -0.000033
   59  N  6 XZ    0.000555   0.015340  -0.049561  -0.000086  -0.000088
   60  N  6 YZ    0.000658  -0.049631  -0.015292  -0.000065  -0.000109

                     26         27         28         29         30
                    1.0550     1.0579     1.0904     1.0908     1.1150
                     A          A          A          A          A   
    1  C  1  S    0.000946  -0.000520   0.000390  -0.000179   0.024348
    2  C  1  S   -0.008595  -0.033553  -0.017958   0.023335  -1.199012
    3  C  1  X    0.736757  -0.073305   0.163395   0.079845  -0.003728
    4  C  1  Y   -0.071438  -0.729415  -0.087696   0.188845   0.024947
    5  C  1  Z   -0.000804   0.017715   0.010528  -0.007502   0.574348
    6  C  1  S    0.035479   0.045393   0.026239  -0.058098   2.426005
    7  C  1  X   -1.302106   0.132577   0.034857   0.013977   0.005316
    8  C  1  Y    0.124573   1.302687   0.002164  -0.009875  -0.038272
    9  C  1  Z    0.019939  -0.052368  -0.028929   0.004599  -1.050313
   10  C  1 XX   -0.077876   0.138335  -0.013299  -0.099724   0.045724
   11  C  1 YY    0.079486  -0.137813   0.015602   0.099500   0.058281
   12  C  1 ZZ   -0.000342  -0.006359  -0.003699   0.002304  -0.179424
   13  C  1 XY   -0.161794  -0.090638  -0.110587   0.021792   0.006311
   14  C  1 XZ    0.161532  -0.016928   0.041794   0.021240  -0.002784
   15  C  1 YZ   -0.014921  -0.160927  -0.021448   0.047814   0.006120
   16  H  2  S   -0.639512   0.289168  -0.232680  -0.248676   0.450202
   17  H  2  S    1.366449  -0.636223   0.327885   0.374629  -1.080681
   18  H  2  X   -0.071816   0.048988  -0.013006  -0.035273   0.085075
   19  H  2  Y   -0.043203  -0.025635  -0.034751   0.021040   0.030668
   20  H  2  Z    0.059837  -0.026793  -0.014854  -0.012995   0.002332
   21  C  3  S   -0.000522  -0.000616  -0.000701   0.000175  -0.028396
   22  C  3  S    0.012527  -0.022535  -0.009264  -0.001397  -0.211732
   23  C  3  X   -0.121595   0.013734   0.383511   0.182157  -0.003380
   24  C  3  Y    0.011658   0.136127  -0.180415   0.378692   0.004313
   25  C  3  Z   -0.007172   0.015137   0.006336  -0.001059   0.232504
   26  C  3  S   -0.033166   0.053044   0.027005   0.009427   0.588911
   27  C  3  X    0.335944  -0.038296  -0.946123  -0.449818   0.007404
   28  C  3  Y   -0.031153  -0.368605   0.444488  -0.934045  -0.010479
   29  C  3  Z    0.030452  -0.048203  -0.022769  -0.010098  -0.384454
   30  C  3 XX    0.007773  -0.011839  -0.000509  -0.002854   0.024884
   31  C  3 YY   -0.004830   0.010192   0.000643   0.001686   0.024206
   32  C  3 ZZ   -0.000311  -0.002760  -0.001608   0.000872  -0.075126
   33  C  3 XY    0.012785   0.007142  -0.002831   0.000260  -0.000174
   34  C  3 XZ   -0.044910   0.004264  -0.129630  -0.062071   0.001827
   35  C  3 YZ    0.004207   0.040717   0.062106  -0.131398  -0.004516
   36  H  4  S    0.080517  -0.681938  -0.080318   0.342353   0.477050
   37  H  4  S   -0.165128   1.440421   0.115176  -0.509363  -1.140592
   38  H  4  X    0.041568   0.022817   0.040588   0.001963  -0.020051
   39  H  4  Y   -0.019388   0.086646   0.000205  -0.037740  -0.092466
   40  H  4  Z   -0.007865   0.067676  -0.003976   0.017414   0.001397
   41  H  5  S    0.578981   0.417457   0.336311  -0.114351   0.430664
   42  H  5  S   -1.214134  -0.902495  -0.504179   0.183435  -1.041456
   43  H  5  X   -0.037755  -0.064189  -0.019117   0.036775  -0.064314
   44  H  5  Y    0.068743   0.010613   0.031833   0.021248   0.059330
   45  H  5  Z   -0.053335  -0.038263   0.019743  -0.004600   0.004187
   46  N  6  S    0.000087   0.000271   0.000229  -0.000128   0.013128
   47  N  6  S   -0.004143   0.002275  -0.000902   0.000306  -0.040856
   48  N  6  X    0.402372  -0.041807  -0.765149  -0.362460   0.006357
   49  N  6  Y   -0.040428  -0.431858   0.358951  -0.751300  -0.005898
   50  N  6  Z    0.002331   0.003685   0.003667  -0.001631   0.183471
   51  N  6  S   -0.003368   0.009582   0.006499   0.004312   0.032188
   52  N  6  X   -0.471570   0.050464   1.187080   0.563492  -0.010404
   53  N  6  Y    0.046811   0.515520  -0.558169   1.170806   0.013152
   54  N  6  Z   -0.003853  -0.001399  -0.002693   0.000601  -0.092817
   55  N  6 XX    0.001934  -0.004245  -0.000027   0.001365  -0.008991
   56  N  6 YY   -0.003184   0.004788  -0.000274  -0.001132  -0.009410
   57  N  6 ZZ   -0.000702   0.002354   0.001039  -0.000553   0.054404
   58  N  6 XY    0.005268   0.002971   0.001336  -0.000334  -0.000116
   59  N  6 XZ    0.008422  -0.000841   0.013722   0.006650  -0.000267
   60  N  6 YZ   -0.000804  -0.008226  -0.006611   0.014153   0.000713

                     31         32         33         34         35
                    1.3368     1.5806     1.5817     1.6181     1.7890
                     A          A          A          A          A   
    1  C  1  S   -0.018650  -0.000828  -0.013001   0.138618  -0.000353
    2  C  1  S   -1.284223  -0.005427  -0.119111   1.257733  -0.003044
    3  C  1  X   -0.000884   0.043289  -0.166682  -0.011977  -0.023303
    4  C  1  Y   -0.000369  -0.168417  -0.044620  -0.000986   0.002539
    5  C  1  Z   -0.460294   0.001761   0.012677  -0.094050   0.000955
    6  C  1  S    2.065428   0.029156   0.520567  -4.927967   0.029658
    7  C  1  X    0.003104  -0.111759   0.428511   0.028367   0.185410
    8  C  1  Y    0.001241   0.433894   0.114239   0.004672  -0.016438
    9  C  1  Z    0.090627   0.010701   0.149892  -1.338850   0.010224
   10  C  1 XX   -0.088499   0.173530   0.200728   0.074515   0.028102
   11  C  1 YY   -0.088244  -0.174333  -0.211916   0.039152  -0.029306
   12  C  1 ZZ   -0.016544  -0.000169  -0.004451   0.056590   0.000933
   13  C  1 XY    0.000497  -0.234885   0.199428   0.016206   0.057687
   14  C  1 XZ    0.001635  -0.129215   0.487662   0.041887  -0.075466
   15  C  1 YZ    0.001448   0.490059   0.126501   0.014217   0.006052
   16  H  2  S   -0.063608   0.000455  -0.003509   0.507814  -0.067807
   17  H  2  S   -0.484136  -0.018057  -0.272949   0.264251  -0.096665
   18  H  2  X    0.013094   0.060997   0.085584   0.020415  -0.006793
   19  H  2  Y    0.004562  -0.163112   0.039297   0.006277  -0.016729
   20  H  2  Z   -0.008150   0.011622   0.181040  -0.005639   0.006699
   21  C  3  S    0.039596   0.000056   0.000860  -0.003224   0.000234
   22  C  3  S   -0.370487   0.005409   0.079840  -0.745978   0.003890
   23  C  3  X    0.001811  -0.024352   0.092169   0.005996  -0.004976
   24  C  3  Y    0.000889   0.092832   0.024077   0.001530   0.000419
   25  C  3  Z   -0.506154   0.001163   0.008680  -0.111281  -0.000448
   26  C  3  S   -1.081671  -0.027351  -0.465501   5.482064   0.007589
   27  C  3  X   -0.006399   0.105277  -0.398228  -0.025088  -0.051837
   28  C  3  Y   -0.003805  -0.401938  -0.104235  -0.005945   0.004290
   29  C  3  Z   -1.034507   0.014530   0.174672  -0.688938   0.038132
   30  C  3 XX   -0.080346   0.052826   0.074889  -0.144445   0.313732
   31  C  3 YY   -0.081353  -0.051361  -0.049382  -0.154784  -0.314948
   32  C  3 ZZ    0.095314  -0.000963  -0.017570   0.220051   0.000827
   33  C  3 XY    0.000247  -0.070477   0.060133   0.005193   0.623766
   34  C  3 XZ   -0.001169   0.102060  -0.386100  -0.036251   0.082600
   35  C  3 YZ   -0.000984  -0.387343  -0.100275  -0.011657  -0.006367
   36  H  4  S   -0.058073  -0.040567  -0.064449   0.498335   0.007582
   37  H  4  S   -0.492857   0.223001   0.084163   0.294329   0.011251
   38  H  4  X   -0.003056   0.092154  -0.144080  -0.015901   0.032911
   39  H  4  Y   -0.013391   0.067061   0.072844  -0.007572  -0.008237
   40  H  4  Z   -0.009105  -0.163711  -0.080068  -0.026829  -0.001356
   41  H  5  S   -0.061952   0.031791  -0.068467   0.502515   0.056386
   42  H  5  S   -0.484791  -0.205717   0.108109   0.290253   0.083560
   43  H  5  X   -0.010727  -0.122607  -0.057747  -0.017198   0.006298
   44  H  5  Y    0.009490  -0.019865  -0.142184  -0.003944   0.022411
   45  H  5  Z   -0.008353   0.152644  -0.100390  -0.026050  -0.007043
   46  N  6  S   -0.068949   0.000037  -0.000816   0.027519   0.000472
   47  N  6  S    0.058054  -0.004414  -0.075062   1.072545   0.006837
   48  N  6  X   -0.000803  -0.033888   0.128490   0.014050  -0.040048
   49  N  6  Y   -0.000254   0.128409   0.033310   0.004601   0.003060
   50  N  6  Z   -0.711164   0.002623   0.029445  -0.281189   0.000986
   51  N  6  S    1.663471   0.004659   0.146570  -3.112636  -0.043292
   52  N  6  X    0.003817  -0.053837   0.203056   0.011767   0.027915
   53  N  6  Y    0.002264   0.205360   0.053078   0.002966  -0.002220
   54  N  6  Z   -0.212837  -0.004863  -0.095087   1.495811   0.012807
   55  N  6 XX    0.031297   0.017665   0.010262   0.156198   0.250019
   56  N  6 YY    0.030979  -0.019168  -0.033908   0.152182  -0.248957
   57  N  6 ZZ   -0.237705   0.000241  -0.000872   0.063238   0.001454
   58  N  6 XY    0.000070  -0.024911   0.021366   0.002069   0.495037
   59  N  6 XZ    0.000528  -0.056376   0.213838   0.020603  -0.049507
   60  N  6 YZ    0.000431   0.214170   0.055611   0.006385   0.003734

                     36         37         38         39         40
                    1.7892     1.8195     2.0381     2.0400     2.2460
                     A          A          A          A          A   
    1  C  1  S    0.000335   0.110665   0.002079  -0.000320   0.000510
    2  C  1  S    0.004495   1.221521   0.019591  -0.004713   0.002339
    3  C  1  X    0.001436  -0.001797  -0.017406   0.008590   0.080814
    4  C  1  Y    0.023102   0.001430  -0.008064  -0.016195  -0.038968
    5  C  1  Z   -0.001340  -0.213780  -0.000891   0.001844  -0.000514
    6  C  1  S   -0.038506  -8.754645  -0.111945   0.021148  -0.013869
    7  C  1  X   -0.015438   0.003074   0.491813  -0.243437  -0.336003
    8  C  1  Y   -0.186462  -0.001136   0.244753   0.488949   0.166717
    9  C  1  Z   -0.015263  -3.079933  -0.046661   0.009369  -0.003474
   10  C  1 XX   -0.047967   0.151607   0.188834   0.094864  -0.044161
   11  C  1 YY    0.049496   0.145503  -0.180550  -0.096491   0.048989
   12  C  1 ZZ   -0.000986  -0.202737  -0.006912   0.001668  -0.004824
   13  C  1 XY    0.033207   0.002826   0.117811  -0.208305  -0.329316
   14  C  1 XZ    0.006846   0.003403   0.231850  -0.117738   0.220764
   15  C  1 YZ    0.074903   0.001523   0.115982   0.237500  -0.102429
   16  H  2  S    0.029400   0.335615  -0.187646   0.027922   0.233896
   17  H  2  S    0.042041   0.324627  -0.118269   0.015407   0.006873
   18  H  2  X    0.015029   0.005251   0.097835   0.003710   0.144955
   19  H  2  Y   -0.029339   0.001274   0.023585  -0.054332   0.023886
   20  H  2  Z   -0.002317   0.078531   0.366872  -0.053021   0.040001
   21  C  3  S   -0.000319  -0.060664  -0.000522   0.000083   0.000079
   22  C  3  S   -0.004950  -0.996849  -0.012240   0.002252   0.000281
   23  C  3  X    0.000449   0.000119  -0.103780   0.052120  -0.067077
   24  C  3  Y    0.005147  -0.000156  -0.052205  -0.105726   0.030456
   25  C  3  Z    0.000893   0.109036  -0.002673   0.001179  -0.002884
   26  C  3  S   -0.012128  -0.915521   0.043526  -0.009578   0.009527
   27  C  3  X    0.004543   0.003080  -0.428108   0.213476   0.090144
   28  C  3  Y    0.051155   0.001778  -0.212784  -0.428146  -0.045686
   29  C  3  Z   -0.052606  -9.727497  -0.087646   0.016775  -0.003240
   30  C  3 XX   -0.539310   0.134401   0.000291  -0.000465  -0.075793
   31  C  3 YY    0.541003   0.124200   0.002280  -0.000351   0.077710
   32  C  3 ZZ   -0.001182  -0.160719   0.000275   0.000074  -0.000375
   33  C  3 XY    0.363204   0.001272  -0.000687   0.000217  -0.524542
   34  C  3 XZ   -0.007699  -0.007703   0.400445  -0.198810  -0.013047
   35  C  3 YZ   -0.081286  -0.002021   0.199849   0.400259   0.007476
   36  H  4  S   -0.070227   0.330701   0.125319   0.148041   0.078612
   37  H  4  S   -0.105211   0.336932   0.080398   0.097291   0.007558
   38  H  4  X    0.006110  -0.003807  -0.032977   0.049955   0.088750
   39  H  4  Y    0.011186  -0.004715   0.068765   0.070488  -0.065648
   40  H  4  Z    0.008113   0.080284  -0.226922  -0.290548   0.012912
   41  H  5  S    0.043570   0.333061   0.079973  -0.177801  -0.311148
   42  H  5  S    0.064816   0.332735   0.047260  -0.114014  -0.009433
   43  H  5  X   -0.024258  -0.005850  -0.008005  -0.082165   0.138009
   44  H  5  Y   -0.015565   0.000961  -0.061170   0.046720  -0.134492
   45  H  5  Z   -0.004136   0.081179  -0.136757   0.343510  -0.050776
   46  N  6  S   -0.000655  -0.110169  -0.000579   0.000104   0.000034
   47  N  6  S   -0.010109  -1.597099  -0.002970  -0.000170   0.003293
   48  N  6  X    0.003751   0.004145  -0.229999   0.114391  -0.004630
   49  N  6  Y    0.039307   0.001086  -0.114750  -0.230234   0.001385
   50  N  6  Z   -0.000998  -0.226163  -0.004722   0.001418  -0.002059
   51  N  6  S    0.061194  10.393656   0.057804  -0.009846  -0.004537
   52  N  6  X   -0.002527  -0.002647   0.304764  -0.152205  -0.003215
   53  N  6  Y   -0.027401  -0.001006   0.151793   0.305853   0.003441
   54  N  6  Z   -0.018446  -3.010345  -0.010901   0.001359   0.003395
   55  N  6 XX   -0.429808  -0.106722  -0.095530  -0.050798   0.102894
   56  N  6 YY    0.428152  -0.115726   0.097266   0.050194  -0.101485
   57  N  6 ZZ   -0.001982  -0.345571  -0.003053   0.000670  -0.000853
   58  N  6 XY    0.288425   0.001064  -0.061508   0.109940   0.697906
   59  N  6 XZ    0.004692   0.005657  -0.452669   0.226222  -0.115741
   60  N  6 YZ    0.048646   0.001296  -0.226338  -0.456269   0.051821

                     41         42         43         44         45
                    2.2476     2.2872     2.3412     2.3444     2.4004
                     A          A          A          A          A   
    1  C  1  S    0.000772   0.000024  -0.000824   0.001466  -0.018430
    2  C  1  S    0.001434   0.000131  -0.004493   0.000885  -0.111395
    3  C  1  X   -0.036516  -0.000175  -0.132353  -0.060749   0.000754
    4  C  1  Y   -0.077260  -0.001465   0.060649  -0.134615  -0.003621
    5  C  1  Z    0.000936  -0.000006   0.000356   0.002758  -0.067872
    6  C  1  S   -0.010895  -0.000697   0.013078   0.003229  -0.584187
    7  C  1  X    0.153497  -0.007483   0.581375   0.267320   0.004153
    8  C  1  Y    0.334592   0.010928  -0.275023   0.611642   0.023113
    9  C  1  Z   -0.004610  -0.000221   0.004957  -0.011478   0.338660
   10  C  1 XX    0.277813   0.001366   0.063677   0.403792  -0.368393
   11  C  1 YY   -0.273978  -0.001137  -0.077344  -0.385148  -0.385951
   12  C  1 ZZ   -0.003107  -0.000215   0.014327  -0.018030   0.857502
   13  C  1 XY   -0.055798  -0.008502   0.446714  -0.088060  -0.010797
   14  C  1 XZ   -0.104196   0.001772  -0.207500  -0.099960   0.012722
   15  C  1 YZ   -0.212729  -0.000515   0.089682  -0.208325  -0.006637
   16  H  2  S   -0.215824   0.005364  -0.354696  -0.338054   0.165800
   17  H  2  S   -0.007748  -0.002785   0.026011   0.022619  -0.042767
   18  H  2  X   -0.115842  -0.175860  -0.307280  -0.151185   0.052306
   19  H  2  Y   -0.077460   0.541849   0.139035  -0.291216   0.007717
   20  H  2  Z   -0.036378   0.002209  -0.035352  -0.027065  -0.246182
   21  C  3  S   -0.000040   0.000003  -0.000324   0.000144  -0.013792
   22  C  3  S    0.001730   0.000020  -0.005345   0.011759  -0.520589
   23  C  3  X    0.031872   0.000058   0.064036   0.031471  -0.006093
   24  C  3  Y    0.063710  -0.000359  -0.026348   0.062560   0.001170
   25  C  3  Z   -0.002918  -0.000124   0.008951  -0.014317   0.598210
   26  C  3  S    0.013763   0.000454  -0.025728   0.050742  -1.844714
   27  C  3  X   -0.040197   0.003935  -0.239736  -0.109282  -0.004941
   28  C  3  Y   -0.089607  -0.005404   0.113285  -0.250020  -0.008899
   29  C  3  Z    0.004671  -0.000178  -0.016471   0.049768  -2.224412
   30  C  3 XX    0.464894  -0.009659  -0.072945  -0.356157  -0.087984
   31  C  3 YY   -0.464739   0.009742   0.068240   0.358472  -0.078939
   32  C  3 ZZ    0.000145  -0.000015   0.001157  -0.000543   0.057509
   33  C  3 XY   -0.090978   0.053359  -0.425178   0.075865   0.006116
   34  C  3 XZ    0.005560  -0.001186   0.076471   0.035478  -0.001302
   35  C  3 YZ    0.014131   0.001652  -0.035600   0.079745   0.002765
   36  H  4  S    0.306546   0.005665  -0.107463   0.483060   0.182261
   37  H  4  S    0.018421   0.000135  -0.001167  -0.021660  -0.038266
   38  H  4  X   -0.040868   0.573799  -0.230676  -0.140133  -0.014778
   39  H  4  Y   -0.180376  -0.120822   0.121889  -0.309803  -0.065379
   40  H  4  Z    0.051830  -0.001361  -0.014971   0.055508  -0.234105
   41  H  5  S   -0.087454  -0.011010   0.466196  -0.150298   0.154073
   42  H  5  S   -0.006268   0.002909  -0.035533   0.003421  -0.038601
   43  H  5  X   -0.011895  -0.382790  -0.318411  -0.102280  -0.043473
   44  H  5  Y   -0.093544  -0.437302   0.130414  -0.268548   0.026656
   45  H  5  Z   -0.013689  -0.000813   0.044277  -0.012044  -0.236517
   46  N  6  S    0.000097   0.000001  -0.000273   0.000548  -0.022466
   47  N  6  S    0.003852   0.000137  -0.012158   0.021035  -0.895249
   48  N  6  X    0.002554   0.000627  -0.030389  -0.013686  -0.000956
   49  N  6  Y    0.003725  -0.000980   0.014707  -0.032127  -0.001150
   50  N  6  Z   -0.001073  -0.000084   0.004871  -0.005261   0.239046
   51  N  6  S   -0.013113  -0.000176   0.035626  -0.080496   3.372027
   52  N  6  X    0.000363  -0.001793   0.080279   0.035520   0.005342
   53  N  6  Y    0.004556   0.002694  -0.039580   0.085279   0.003305
   54  N  6  Z    0.005460   0.000142  -0.015597   0.030343  -1.269867
   55  N  6 XX   -0.613413   0.010998   0.065020   0.336609  -0.061984
   56  N  6 YY    0.614107  -0.010937  -0.068445  -0.333711  -0.069380
   57  N  6 ZZ   -0.000226  -0.000040   0.001937  -0.001128   0.070476
   58  N  6 XY    0.120055  -0.060142   0.402357  -0.071246  -0.004960
   59  N  6 XZ    0.055576   0.001093   0.062209   0.032730  -0.013131
   60  N  6 YZ    0.109717  -0.002096  -0.022480   0.058094   0.000492

                     46         47         48         49         50
                    2.5670     2.5702     2.8307     2.9726     2.9742
                     A          A          A          A          A   
    1  C  1  S   -0.000036   0.000513   0.026010  -0.001383  -0.000059
    2  C  1  S    0.004480   0.004093   0.042599  -0.004061   0.001894
    3  C  1  X    0.003086   0.001583  -0.000265   0.023943  -0.166381
    4  C  1  Y    0.001028   0.001385   0.001188   0.161209   0.024471
    5  C  1  Z   -0.001752   0.000834  -0.192324   0.004504  -0.000484
    6  C  1  S   -0.043020  -0.029894  -1.245114   0.046917   0.001078
    7  C  1  X   -0.552932  -0.075114  -0.000228   0.087674  -0.590888
    8  C  1  Y    0.067878  -0.549104   0.009652   0.592310   0.087199
    9  C  1  Z   -0.003559  -0.010178  -1.121225   0.023027   0.000951
   10  C  1 XX    0.006847   0.031571  -0.165334  -0.365436   0.183424
   11  C  1 YY   -0.018908  -0.036133  -0.153691   0.364455  -0.181000
   12  C  1 ZZ    0.011920   0.005265   0.331312  -0.003617  -0.000834
   13  C  1 XY    0.035385  -0.024193   0.001302   0.210769   0.415854
   14  C  1 XZ   -0.424355  -0.054968   0.001313  -0.012004   0.076278
   15  C  1 YZ    0.055398  -0.425744  -0.001191  -0.075912  -0.010514
   16  H  2  S   -0.028526  -0.013856   0.061919  -0.005109   0.006005
   17  H  2  S    0.308860   0.150622  -0.120779  -0.185951   0.367844
   18  H  2  X    0.146433  -0.037236   0.188968   0.277309  -0.057917
   19  H  2  Y   -0.091468   0.278359   0.051584  -0.574567  -0.351688
   20  H  2  Z    0.515885   0.251275   0.542656   0.001818  -0.011350
   21  C  3  S   -0.000055  -0.000274  -0.094503   0.001859   0.000106
   22  C  3  S   -0.015711  -0.007335  -0.208999   0.009378  -0.000689
   23  C  3  X    0.291532   0.037756   0.000914   0.025214  -0.177165
   24  C  3  Y   -0.038191   0.293347   0.000760   0.177519   0.027156
   25  C  3  Z    0.011245   0.004299  -0.180052   0.005249  -0.000383
   26  C  3  S   -0.019446   0.001779   0.452325  -0.006721   0.004531
   27  C  3  X    0.271426   0.037787   0.001678  -0.012437   0.078600
   28  C  3  Y   -0.032065   0.266948  -0.003446  -0.079069  -0.010899
   29  C  3  Z   -0.066835  -0.035460  -1.555735   0.050344   0.003685
   30  C  3 XX   -0.034051  -0.069840  -0.317013   0.084964  -0.039205
   31  C  3 YY    0.034489   0.068626  -0.321104  -0.075142   0.040497
   32  C  3 ZZ    0.002089   0.001267   0.137831  -0.002686  -0.000249
   33  C  3 XY   -0.078993   0.043889  -0.000136  -0.046522  -0.091522
   34  C  3 XZ    0.234981   0.030843   0.002989   0.084723  -0.596629
   35  C  3 YZ   -0.030956   0.240838   0.002315   0.595012   0.091242
   36  H  4  S    0.004681   0.043719   0.064258   0.001880   0.000333
   37  H  4  S   -0.025075  -0.345487  -0.114142   0.413859  -0.025735
   38  H  4  X    0.303667  -0.001397  -0.036750   0.077018   0.693955
   39  H  4  Y   -0.051925   0.113512  -0.186739   0.175261  -0.157596
   40  H  4  Z   -0.049279  -0.577164   0.540671  -0.023758   0.001500
   41  H  5  S    0.033741  -0.021402   0.062599  -0.006381  -0.005541
   42  H  5  S   -0.280315   0.194559  -0.120774  -0.225285  -0.345025
   43  H  5  X    0.185810   0.124876  -0.146650  -0.469280   0.140841
   44  H  5  Y    0.066193   0.231233   0.119349  -0.376677   0.394807
   45  H  5  Z   -0.485212   0.327261   0.538419   0.004253   0.012879
   46  N  6  S   -0.000364  -0.000195  -0.031953   0.000672  -0.000013
   47  N  6  S   -0.016188  -0.007032  -0.433789   0.010945   0.002036
   48  N  6  X   -0.012762  -0.001441  -0.000370  -0.017911   0.125581
   49  N  6  Y    0.002126  -0.014633  -0.000758  -0.125404  -0.019155
   50  N  6  Z    0.002633   0.001289   0.107883  -0.000547  -0.000457
   51  N  6  S    0.074374   0.033840   1.784961  -0.054271  -0.006273
   52  N  6  X   -0.262214  -0.035488  -0.001757  -0.014485   0.105932
   53  N  6  Y    0.032413  -0.260926   0.001145  -0.105337  -0.016686
   54  N  6  Z   -0.024013  -0.010505  -0.778394   0.021355   0.002589
   55  N  6 XX    0.019685   0.038736  -0.226808  -0.025507   0.014767
   56  N  6 YY   -0.018868  -0.038960  -0.225011   0.034412  -0.015032
   57  N  6 ZZ   -0.000208   0.000227   0.354036  -0.008702  -0.000374
   58  N  6 XY    0.044530  -0.024675   0.000039   0.017396   0.034189
   59  N  6 XZ    0.628902   0.082762   0.003692   0.074657  -0.527320
   60  N  6 YZ   -0.080876   0.631431   0.001275   0.526613   0.080953

                     51         52         53         54         55
                    3.1121     3.2737     3.2785     3.3857     3.6498
                     A          A          A          A          A   
    1  C  1  S    0.069312  -0.002396  -0.001919   0.118638  -0.008759
    2  C  1  S   -0.257455   0.017175   0.011024  -0.658764   0.315991
    3  C  1  X    0.001251   0.183876  -0.044387   0.005145   0.017969
    4  C  1  Y    0.000969   0.049848   0.187967  -0.002940   0.033345
    5  C  1  Z   -0.161864  -0.010279  -0.006286   0.197761  -0.604547
    6  C  1  S   -2.455855   0.019158   0.013489  -1.190204  -0.975385
    7  C  1  X    0.000661  -0.066321   0.020397  -0.004908   0.017297
    8  C  1  Y   -0.001739  -0.012768  -0.065741  -0.016384   0.031848
    9  C  1  Z   -0.631205  -0.005265  -0.008687  -0.008262  -0.917886
   10  C  1 XX    0.245854   0.312655   0.261514  -0.078181   0.432717
   11  C  1 YY    0.247244  -0.295950  -0.259929  -0.093445   0.364341
   12  C  1 ZZ   -0.314542  -0.012283  -0.003966   0.303054  -0.842466
   13  C  1 XY    0.003150   0.302932  -0.351379   0.013136  -0.006762
   14  C  1 XZ   -0.002601   0.568867  -0.146446   0.019547  -0.023327
   15  C  1 YZ    0.002289   0.142689   0.574025   0.025404  -0.036953
   16  H  2  S    0.082920  -0.052824  -0.007739   0.281156  -0.194820
   17  H  2  S    0.167097  -0.042823  -0.012092   0.290128  -0.226261
   18  H  2  X   -0.228905   0.042381  -0.099771  -0.556697   0.375369
   19  H  2  Y   -0.077042  -0.015002   0.347306  -0.179240   0.122003
   20  H  2  Z   -0.158364  -0.441457  -0.033140   0.187284  -0.189509
   21  C  3  S   -0.154105  -0.000318   0.000091  -0.036584  -0.142457
   22  C  3  S   -0.812767  -0.017604  -0.008041   0.907407   1.327994
   23  C  3  X   -0.000811   0.110540  -0.027218   0.001743  -0.000694
   24  C  3  Y    0.001151   0.028116   0.108137   0.002331  -0.001423
   25  C  3  Z   -0.881668  -0.022162  -0.006872   0.724885   0.538829
   26  C  3  S   -1.623549  -0.025150  -0.001883   1.204086   1.839128
   27  C  3  X   -0.000738   0.209936  -0.054475   0.006641  -0.005223
   28  C  3  Y    0.001760   0.052152   0.211536   0.008461  -0.007904
   29  C  3  Z   -3.433890  -0.007220  -0.003889   0.031474  -1.042398
   30  C  3 XX   -0.310338  -0.022621  -0.021611  -0.481591  -0.999965
   31  C  3 YY   -0.310644   0.036356   0.028154  -0.480497  -0.995459
   32  C  3 ZZ    0.048628  -0.009055  -0.002732   0.444582   0.880872
   33  C  3 XY   -0.000388  -0.029633   0.033835  -0.000851   0.000273
   34  C  3 XZ   -0.003961   0.837497  -0.210486   0.020402  -0.008283
   35  C  3 YZ    0.005010   0.213164   0.836519   0.021009  -0.011751
   36  H  4  S    0.081040   0.014593   0.038653   0.273743  -0.135355
   37  H  4  S    0.169832   0.009584   0.025742   0.278135  -0.179093
   38  H  4  X    0.048854   0.319988  -0.156539   0.123989  -0.064734
   39  H  4  Y    0.238327  -0.073884   0.039000   0.556061  -0.301066
   40  H  4  Z   -0.161889   0.186311   0.396871   0.201930  -0.164035
   41  H  5  S    0.083613   0.018773  -0.041777   0.285480  -0.176697
   42  H  5  S    0.168743   0.008591  -0.033839   0.291261  -0.211823
   43  H  5  X    0.180953   0.190877   0.112744   0.450724  -0.280141
   44  H  5  Y   -0.163682   0.225894   0.167368  -0.384301   0.244051
   45  H  5  Z   -0.161586   0.237211  -0.363365   0.197208  -0.179011
   46  N  6  S   -0.061758  -0.001049  -0.000406   0.029513   0.003946
   47  N  6  S   -0.996708   0.002383   0.002082  -0.194910  -0.539649
   48  N  6  X    0.000694  -0.148963   0.037269  -0.003540   0.001461
   49  N  6  Y   -0.000901  -0.038001  -0.148455  -0.003661   0.002122
   50  N  6  Z   -0.157463  -0.011198  -0.003915   0.502399   0.744006
   51  N  6  S    5.116138   0.034737   0.009370  -1.070595  -0.138919
   52  N  6  X    0.001280  -0.269610   0.068517  -0.006974   0.003524
   53  N  6  Y   -0.001906  -0.068019  -0.269962  -0.007776   0.005125
   54  N  6  Z   -2.261943  -0.019985  -0.005093   0.639749   0.315099
   55  N  6 XX   -0.491917  -0.000278   0.004856   0.343332   0.295635
   56  N  6 YY   -0.491851  -0.020195  -0.011924   0.343000   0.294173
   57  N  6 ZZ    1.111207   0.018969   0.005653  -0.690222  -0.725844
   58  N  6 XY    0.000157   0.009989  -0.011390   0.000304  -0.000102
   59  N  6 XZ   -0.003399   0.652459  -0.163860   0.015172  -0.005996
   60  N  6 YZ    0.004531   0.165767   0.650065   0.016047  -0.008665

                     56         57         58         59         60
                    3.7157     3.7226     4.4153     4.6190     5.0697
                     A          A          A          A          A   
    1  C  1  S   -0.000843   0.001208   0.105004  -0.318993  -0.361298
    2  C  1  S    0.008169  -0.039616  -0.383643   2.019500   1.919863
    3  C  1  X    0.745552   0.350100  -0.001000   0.000053   0.000386
    4  C  1  Y   -0.352284   0.762051  -0.000502   0.002637   0.003028
    5  C  1  Z   -0.005352   0.036636  -0.303453   0.229760  -0.205401
    6  C  1  S    0.020067   0.047990  -3.196023  -0.225352   3.346872
    7  C  1  X    0.573971   0.265994   0.000095  -0.001236   0.001713
    8  C  1  Y   -0.270802   0.578320  -0.000273  -0.001382   0.000822
    9  C  1  Z    0.000842   0.046277  -1.044451  -0.472526   0.727738
   10  C  1 XX    0.137204   0.756669   0.386897  -1.459894  -1.451297
   11  C  1 YY   -0.143739  -0.808930   0.388702  -1.465684  -1.457935
   12  C  1 ZZ    0.006410   0.051810   0.081567  -0.959087  -1.823077
   13  C  1 XY    0.907096  -0.161018  -0.000582  -0.000777  -0.000232
   14  C  1 XZ   -0.659186  -0.311716   0.000235   0.002189   0.002387
   15  C  1 YZ    0.303982  -0.663151  -0.000000  -0.000503  -0.000957
   16  H  2  S   -0.548881  -0.502236   0.016031   0.226385   0.078756
   17  H  2  S   -0.380781  -0.344668   0.136363  -0.221170  -0.283391
   18  H  2  X    0.721549   0.665005   0.019264  -0.206018  -0.185504
   19  H  2  Y    0.265158   0.195613   0.006479  -0.068161  -0.061770
   20  H  2  Z   -0.252119  -0.223006  -0.033105   0.033182   0.070466
   21  C  3  S    0.001173   0.006548   0.093270  -0.313582   0.315635
   22  C  3  S   -0.006486  -0.053461  -0.930137   1.738888  -1.792012
   23  C  3  X   -0.024889  -0.011397  -0.000070   0.000088  -0.000003
   24  C  3  Y    0.011701  -0.024682  -0.000012  -0.000004   0.000013
   25  C  3  Z   -0.002800  -0.018308   0.503880  -0.135820   0.135784
   26  C  3  S   -0.009647  -0.082334  -2.890804  -1.581244  -0.532568
   27  C  3  X   -0.120274  -0.056459   0.000546  -0.000427  -0.001333
   28  C  3  Y    0.055823  -0.120943   0.000350   0.000017  -0.000812
   29  C  3  Z    0.012799   0.059974  -5.025295  -2.792828   2.235786
   30  C  3 XX   -0.002256  -0.003391   0.315788  -1.040772   0.994433
   31  C  3 YY    0.015456   0.090566   0.315506  -1.040143   0.994991
   32  C  3 ZZ   -0.004786  -0.040441   1.029956  -1.497408   2.189397
   33  C  3 XY   -0.054601   0.009213   0.000084   0.000034   0.000021
   34  C  3 XZ   -0.155863  -0.074498  -0.000097   0.000715   0.001181
   35  C  3 YZ    0.069707  -0.154134  -0.000195   0.000126   0.000251
   36  H  4  S   -0.178452   0.759164   0.013058   0.230997   0.085456
   37  H  4  S   -0.123845   0.521399   0.138823  -0.226061  -0.285187
   38  H  4  X   -0.075681   0.206369  -0.004624   0.044814   0.040553
   39  H  4  Y   -0.237580   1.037286  -0.021194   0.213447   0.193831
   40  H  4  Z   -0.076262   0.338986  -0.035004   0.030812   0.073813
   41  H  5  S    0.714719  -0.202951   0.014033   0.224299   0.078291
   42  H  5  S    0.497279  -0.139638   0.137633  -0.221905  -0.281568
   43  H  5  X    0.741358  -0.225164  -0.016153   0.162610   0.145353
   44  H  5  Y   -0.678430   0.163312   0.014233  -0.144134  -0.129514
   45  H  5  Z    0.319151  -0.081306  -0.034594   0.029370   0.072696
   46  N  6  S   -0.000297   0.000025  -0.539495  -0.202529   0.049626
   47  N  6  S    0.005345   0.025508   0.238284   0.219305  -0.348694
   48  N  6  X    0.029525   0.014086   0.000050  -0.000182  -0.000293
   49  N  6  Y   -0.013188   0.029095   0.000058  -0.000019  -0.000090
   50  N  6  Z   -0.003908  -0.031364   0.550757  -0.270023   0.563918
   51  N  6  S   -0.004901  -0.008695   8.284378   4.485443  -2.282049
   52  N  6  X    0.070863   0.033488  -0.000232   0.000128   0.000441
   53  N  6  Y   -0.032490   0.070929  -0.000134  -0.000023   0.000336
   54  N  6  Z    0.000488  -0.008071  -2.357755  -1.532221   0.798386
   55  N  6 XX    0.000209   0.003441  -1.589351  -0.683531   0.270497
   56  N  6 YY   -0.005383  -0.026490  -1.589306  -0.683641   0.270406
   57  N  6 ZZ    0.002357   0.028352  -1.680408  -0.299196  -0.191610
   58  N  6 XY    0.017435  -0.002971  -0.000012  -0.000014  -0.000011
   59  N  6 XZ   -0.115942  -0.055048   0.000037   0.000290   0.000348
   60  N  6 YZ    0.052324  -0.114843  -0.000038   0.000057  -0.000012
 ...... END OF RHF CALCULATION ......
 CPU     0: STEP CPU TIME=     0.06 TOTAL CPU TIME=          0.1 (      0.0 MIN)
 TOTAL WALL CLOCK TIME=          0.1 SECONDS, CPU UTILIZATION IS    83.33%

     ----------------------------------------------------------------
     PROPERTY VALUES FOR THE RHF   SELF-CONSISTENT FIELD WAVEFUNCTION
     ----------------------------------------------------------------

          -----------------
          ENERGY COMPONENTS
          -----------------

         WAVEFUNCTION NORMALIZATION =       1.0000000000

                ONE ELECTRON ENERGY =    -292.6119023171
                TWO ELECTRON ENERGY =     102.5054961731
           NUCLEAR REPULSION ENERGY =      58.1770444511
                                      ------------------
                       TOTAL ENERGY =    -131.9293616929

 ELECTRON-ELECTRON POTENTIAL ENERGY =     102.5054961731
  NUCLEUS-ELECTRON POTENTIAL ENERGY =    -424.1032291492
   NUCLEUS-NUCLEUS POTENTIAL ENERGY =      58.1770444511
                                      ------------------
             TOTAL POTENTIAL ENERGY =    -263.4206885250
               TOTAL KINETIC ENERGY =     131.4913268321
                 VIRIAL RATIO (V/T) =       2.0033312833

          ---------------------------------------
          MULLIKEN AND LOWDIN POPULATION ANALYSES
          ---------------------------------------

     ATOMIC MULLIKEN POPULATION IN EACH MOLECULAR ORBITAL

                      1          2          3          4          5

                  2.000000   2.000000   2.000000   2.000000   2.000000

    1             0.000040   1.994457   0.004891   0.004909   1.197237
    2            -0.000000   0.000451   0.000003   0.002052   0.120784
    3             0.001224   0.004187   1.997763   0.631169   0.334541
    4            -0.000000   0.000458   0.000003   0.002110   0.123378
    5            -0.000000   0.000449   0.000003   0.002075   0.120859
    6             1.998736  -0.000002  -0.002664   1.357685   0.103201

                      6          7          8          9         10

                  2.000000   2.000000   2.000000   2.000000   2.000000

    1             0.834416   1.028153   1.025184   0.100710   0.092466
    2             0.116012   0.062431   0.426412   0.007392   0.016094
    3             0.655216   0.167642   0.171465   0.250979   0.745675
    4             0.113348   0.474212   0.015829   0.007630   0.081269
    5             0.106321   0.203425   0.294577   0.007854   0.026075
    6             0.174687   0.064136   0.066533   1.625434   1.038421

                     11

                  2.000000

    1             0.095155
    2             0.068037
    3             0.741896
    4             0.000634
    5             0.058262
    6             1.036016

               ----- POPULATIONS IN EACH AO -----
                             MULLIKEN      LOWDIN
              1  C  1  S      1.99669     1.98027
              2  C  1  S      0.63421     0.33656
              3  C  1  X      0.70684     0.61577
              4  C  1  Y      0.70910     0.61692
              5  C  1  Z      0.63099     0.55565
              6  C  1  S      0.64824     0.32886
              7  C  1  X      0.40052     0.48908
              8  C  1  Y      0.39850     0.48722
              9  C  1  Z      0.21206     0.38697
             10  C  1 XX      0.00565     0.14379
             11  C  1 YY      0.00608     0.14477
             12  C  1 ZZ      0.01032     0.15266
             13  C  1 XY      0.00765     0.01123
             14  C  1 XZ      0.00540     0.01122
             15  C  1 YZ      0.00537     0.01115
             16  H  2  S      0.51105     0.47779
             17  H  2  S      0.29582     0.34877
             18  H  2  X      0.00793     0.01801
             19  H  2  Y      0.00237     0.00743
             20  H  2  Z      0.00250     0.00670
             21  C  3  S      1.99683     1.97579
             22  C  3  S      0.70196     0.37217
             23  C  3  X      0.54263     0.49136
             24  C  3  Y      0.54246     0.49123
             25  C  3  Z      0.81779     0.71818
             26  C  3  S      0.34189     0.28970
             27  C  3  X      0.35158     0.39663
             28  C  3  Y      0.35159     0.39649
             29  C  3  Z      0.00717     0.32068
             30  C  3 XX     -0.02121     0.10493
             31  C  3 YY     -0.02121     0.10491
             32  C  3 ZZ      0.05195     0.26249
[...]
                               C                          H         
                          X        Y        Z        X        Y        Z
  1   C            X 0.538085 0.002863-0.001103-0.248610-0.064858 0.071889
                   Y 0.002863 0.550800 0.003996-0.065005-0.075588 0.023838
                   Z-0.001103 0.003996 0.545313 0.071763 0.023718-0.079167
  2   H            X-0.248610-0.065005 0.071763 0.266398 0.071302-0.080084
                   Y-0.064858-0.075588 0.023718 0.071302 0.076080-0.026624
                   Z 0.071889 0.023838-0.079167-0.080084-0.026624 0.089543
  3   C            X-0.070643-0.000156 0.000032 0.004445 0.002000 0.033108
                   Y-0.000155-0.070754 0.000052 0.002010-0.000944 0.010979
                   Z 0.000032-0.000294-0.307660 0.001741 0.000615-0.019692
  4   H            X-0.062235-0.045032-0.015866-0.003956-0.026921-0.011075
                   Y-0.045073-0.271275-0.076540 0.000414-0.006887-0.002471
                   Z-0.015868-0.076511-0.078422 0.001248 0.011404 0.004198
  5   H            X-0.173866 0.107310-0.054793-0.017762 0.018885-0.010249
                   Y 0.107202-0.150480 0.048775-0.008312 0.006766-0.004534
                   Z-0.054891 0.048951-0.077788 0.007702-0.008312 0.004126
  6   N            X 0.017264 0.000021-0.000027-0.000516-0.000409-0.003587
                   Y 0.000020 0.017293-0.000003-0.000409 0.000574-0.001187
                   Z-0.000059 0.000020-0.002282-0.002369-0.000800 0.000991

                                   3                          4
                               C                          H         
                          X        Y        Z        X        Y        Z
  3   C            X 0.079972-0.000028 0.000148-0.001204 0.001261-0.007214
                   Y-0.000028 0.080252 0.000098 0.001138 0.004617-0.034593
                   Z 0.000148 0.000098 1.611187-0.000394-0.001923-0.019955
  4   H            X-0.001204 0.001138-0.000394 0.061352 0.049462 0.017550
                   Y 0.001261 0.004617-0.001923 0.049462 0.289858 0.085093
                   Z-0.007214-0.034593-0.019955 0.017550 0.085093 0.089195
  5   H            X 0.001902-0.002973-0.001618 0.005393-0.005798 0.003497
                   Y-0.003084 0.001315 0.001497 0.021599-0.015738 0.010852
                   Z-0.026278 0.023390-0.019816 0.009299-0.006601 0.004096
  6   N            X-0.014478 0.000007 0.000079 0.000651-0.000265 0.000787
                   Y 0.000007-0.014490 0.000005-0.000247-0.000575 0.003755
                   Z 0.000203 0.000074-1.244056 0.000486 0.002441 0.000888

                                   5                          6
                               H                          N         
                          X        Y        Z        X        Y        Z
  5   H            X 0.184348-0.118056 0.061310-0.000014 0.000634 0.001852
                   Y-0.118056 0.158023-0.054893 0.000651 0.000113-0.001696
                   Z 0.061310-0.054893 0.088479 0.002856-0.002533 0.000902
  6   N            X-0.000014 0.000651 0.002856-0.002897-0.000004-0.000108
                   Y 0.000634 0.000113-0.002533-0.000004-0.002907-0.000037
                   Z 0.001852-0.001696 0.000902-0.000108-0.000037 1.243553

          ------------------------          ----------------
          DIPOLE DERIVATIVE TENSOR          (DEBYE/ANGSTROM)
          ------------------------          ----------------

        ATOM                 MU-X           MU-Y           MU-Z
     C          D/DX     0.660203578   -0.001753007    0.001585718
                D/DY    -0.001675272    0.643688924   -0.002834843
                D/DZ    -0.002374225   -0.004769510    0.410791765
     H          D/DX    -0.057035916   -0.168114455    0.195171062
                D/DY    -0.167110964    0.397431138    0.063358532
                D/DZ     0.036273595    0.011886720    0.085199709
     C          D/DX     0.336634038    0.000369431   -0.003660822
                D/DY     0.000368063    0.335554993   -0.000434148
                D/DZ    -0.000827616   -0.003401840   -0.312064621
     H          D/DX     0.426339252   -0.108637477   -0.041109372
                D/DY    -0.110957722   -0.078598898   -0.194705628
                D/DZ    -0.006575685   -0.026948556    0.086352555
     H          D/DX     0.135481663    0.278648701   -0.154148367
                D/DY     0.279853401    0.202887106    0.134804481
                D/DZ    -0.026292705    0.022021585    0.083630811
     N          D/DX    -1.501723599   -0.000487186    0.002668902
                D/DY    -0.000484859   -1.501169974   -0.000186336
                D/DZ    -0.000204083    0.001211774   -0.354180755

          --------------------------------------------------------
          NORMAL COORDINATE ANALYSIS IN THE HARMONIC APPROXIMATION
          --------------------------------------------------------

     *******************************************************
     * THIS IS NOT A STATIONARY POINT ON THE MOLECULAR PES *
     *     THE VIBRATIONAL ANALYSIS IS NOT VALID !!!       *
     *******************************************************

          ATOMIC WEIGHTS (AMU)

    1     C                12.00000
    2     H                 1.00782
    3     C                12.00000
    4     H                 1.00782
    5     H                 1.00782
    6     N                14.00307

 MODES    1 TO    6 ARE TAKEN AS ROTATIONS AND TRANSLATIONS.

 ANALYZING SYMMETRY OF NORMAL MODES...

     FREQUENCIES IN CM**-1, IR INTENSITIES IN DEBYE**2/AMU-ANGSTROM**2,
     REDUCED MASSES IN AMU.

     *******************************************************
     * THIS IS NOT A STATIONARY POINT ON THE MOLECULAR PES *
     *     THE VIBRATIONAL ANALYSIS IS NOT VALID !!!       *
     *******************************************************

                            1           2           3           4           5
       FREQUENCY:       142.96      142.68        0.01        0.05        0.06  
        SYMMETRY:         A           A           A           A           A   
    REDUCED MASS:      6.46622     6.49738     6.83776     6.84112     6.84223
    IR INTENSITY:      0.26593     0.26586     0.00000     0.00000     0.00000

  1   C            X -0.06953428 -0.13422016 -0.00776774 -0.01370058  0.15524112
                   Y -0.13443752  0.06940969  0.00203804  0.15543153  0.01381320
                   Z -0.00004501  0.00003399  0.15591776 -0.00271415  0.00755763
  2   H            X -0.07686251 -0.14676921 -0.00776839 -0.01370002  0.15521981
                   Y -0.14704435  0.07404020  0.00203795  0.15542257  0.01381900
                   Z -0.03152880 -0.03010435  0.15591764 -0.00272197  0.00750604
  3   C            X -0.02307229 -0.04517726 -0.00776881 -0.01370706  0.15532125
                   Y -0.04463488  0.02337447  0.00203609  0.15548743  0.01382685
                   Z -0.00001285 -0.00002700  0.15591569 -0.00271435  0.00756009
  4   H            X -0.07598050 -0.14842628 -0.00776768 -0.01369280  0.15522845
                   Y -0.14809944  0.07641302  0.00204006  0.15541771  0.01380842
                   Z  0.04310258 -0.01171458  0.15591380 -0.00267988  0.00757798
  5   H            X -0.07628854 -0.14592329 -0.00776633 -0.01370363  0.15521598
                   Y -0.14746292  0.07744281  0.00203838  0.15541440  0.01380334
                   Z -0.01088563  0.04180841  0.15591777 -0.00274226  0.00759208
  6   N            X  0.09573368  0.18528381 -0.00777072 -0.01371708  0.15542561
                   Y  0.18514811 -0.09582871  0.00203595  0.15557704  0.01383641
                   Z  0.00000033 -0.00001410  0.15591615 -0.00271451  0.00755938

 TRANS. SAYVETZ    X -0.00163808 -0.00279740 -0.31873715 -0.56239095  6.37249222
                   Y -0.00229688  0.00119303  0.08356333  6.37948692  0.56718782
                   Z  0.00000370 -0.00012424  6.39671547 -0.11136121  0.31012073
               TOTAL  0.00282116  0.00304371  6.40519672  6.40519619  6.40519586

   ROT. SAYVETZ    X-11.79697835  6.09444828  0.00009529 -0.00555296 -0.00091970
                   Y  6.10081701 11.78472330 -0.00011242 -0.00063357  0.00712090
                   Z  0.00345508 -0.00755649 -0.00000285  0.00003276  0.00005140
               TOTAL 13.28113994 13.26733056  0.00014740  0.00558908  0.00718023

                            6           7           8           9          10
       FREQUENCY:       325.18      329.13      430.57      957.16     1142.21  
        SYMMETRY:         A           A           A           A           A   
    REDUCED MASS:      3.41368     3.41854     1.00980     4.39899     1.32299
    IR INTENSITY:      0.00036     0.00046     0.00001     0.04965     0.02869

  1   C            X -0.04485679 -0.09340223 -0.00576271 -0.00018987 -0.08423854
                   Y -0.09286018  0.04524300  0.00331113 -0.00022978 -0.08791917
                   Z -0.00026452  0.00020056  0.00001311  0.19578670  0.00062568
  2   H            X -0.08990424 -0.17271671 -0.18863086  0.00902059  0.05770291
                   Y -0.17500964  0.05988977  0.54827080  0.00325488  0.15442262
                   Z -0.18609648 -0.19107985 -0.00471374  0.23394458  0.54717641
  3   C            X  0.09679028  0.20005559  0.00937526  0.00001686  0.05637072
                   Y  0.20002359 -0.09666597 -0.00628107  0.00012403  0.05964814
                   Z -0.00004661 -0.00007773 -0.00000478 -0.08709880  0.00024129
  4   H            X -0.08230739 -0.20719282  0.56079699 -0.00104744  0.16895622
                   Y -0.18253604  0.09285593 -0.11147921 -0.00856069  0.06758485
                   Z  0.26364803 -0.06518889 -0.00582190  0.22940864 -0.53860808
  5   H            X -0.08973150 -0.16119431 -0.38879648 -0.00589758  0.19717038
                   Y -0.18211160  0.10762507 -0.41915118  0.00662467  0.21192126
                   Z -0.07274468  0.25630363  0.01051728  0.23091567 -0.02513051
  6   N            X -0.02567862 -0.05248867 -0.00190709  0.00000151 -0.00661985
                   Y -0.05301669  0.02533823  0.00127158 -0.00000434 -0.00700130
                   Z -0.00007814 -0.00011038 -0.00000584 -0.14311024  0.00044874

 TRANS. SAYVETZ    X -0.00037050 -0.00050030 -0.00011498  0.00003687  0.00003388
                   Y -0.00031561  0.00014552 -0.00005485 -0.00000062  0.00003227
                   Z  0.00001658 -0.00003665 -0.00000040 -0.00002642 -0.00000434
               TOTAL  0.00048698  0.00052232  0.00012739  0.00004537  0.00004699

   ROT. SAYVETZ    X -4.05720371  1.97691866  0.16490135  0.00641349  0.17606158
                   Y  1.95968677  4.08514128  0.21595234 -0.00737511 -0.17690725
                   Z  0.02979969 -0.16314192  3.42727658 -0.00012196 -0.02159504
               TOTAL  4.50579207  4.54127757  3.43803034  0.00977445  0.25051986

                           11          12          13          14          15
       FREQUENCY:      1144.86     1499.95     1552.72     1557.11     2370.63  
        SYMMETRY:         A           A           A           A           A   
    REDUCED MASS:      1.32026     1.24674     1.04173     1.04270    12.51030
    IR INTENSITY:      0.03021     0.03554     0.18753     0.19447     0.00092

  1   C            X  0.08828286 -0.00066585 -0.05133714 -0.00279074 -0.00007395
                   Y -0.08389528 -0.00229066  0.00203839 -0.05219990 -0.00000001
                   Z  0.00120782 -0.13142593  0.00104433  0.00282641 -0.03214638
  2   H            X -0.13753802  0.19347367 -0.06743942 -0.26455148  0.00173736
                   Y  0.23134724  0.08106436 -0.28628044  0.59877104  0.00065828
                   Z -0.29575938  0.46356031 -0.33774445 -0.13202590 -0.01914134
  3   C            X -0.05844090 -0.00027995 -0.01774446 -0.00059888  0.00000342
                   Y  0.05632273  0.00008814  0.00103600 -0.01727085  0.00001169
                   Z -0.00008311  0.00049691 -0.00003825 -0.00002196  0.22665431
  4   H            X -0.23098882 -0.04045195  0.66312200 -0.13679211 -0.00031883
                   Y  0.11206437 -0.20619162 -0.16131979 -0.13016272 -0.00161857
                   Z -0.33594723  0.46569111  0.04915663  0.33669843 -0.01942248
  5   H            X -0.08213360 -0.14223129  0.20183611  0.44086276 -0.00075524
                   Y  0.07672743  0.15149527  0.41244373  0.33441422  0.00079603
                   Z  0.62015768  0.47073256  0.27819199 -0.23419362 -0.01879831
  6   N            X  0.00685833  0.00003296  0.00180158  0.00006045  0.00001145
                   Y -0.00660716 -0.00000982 -0.00010437  0.00173869  0.00000158
                   Z -0.00013325  0.01144228 -0.00011401 -0.00027843 -0.16255527

 TRANS. SAYVETZ    X -0.00004555 -0.00001330  0.00000764 -0.00000051 -0.00001744
                   Y  0.00003556  0.00000662 -0.00000047  0.00000417 -0.00000322
                   Z -0.00000864  0.00001771 -0.00000086  0.00000234  0.00001130
               TOTAL  0.00005843  0.00002312  0.00000770  0.00000481  0.00002103

   ROT. SAYVETZ    X  0.18739546  0.03215439  0.00582266 -0.02072674  0.00003096
                   Y  0.20546729 -0.00673295  0.04642496 -0.00275197  0.00084654
                   Z  0.02461645 -0.00030045 -0.02645828 -0.00296243  0.00000157
               TOTAL  0.27917706  0.03285312  0.05375147  0.02111746  0.00084711

                           16          17          18
       FREQUENCY:      2956.62     3034.03     3076.35  
        SYMMETRY:         A           A           A   
    REDUCED MASS:      1.03699     1.10259     1.10064
    IR INTENSITY:      0.08823     0.04372     0.03873

  1   C            X  0.00077556 -0.08636709 -0.01929902
                   Y -0.01870159  0.01872543 -0.08487923
                   Z  0.04696050  0.00301163 -0.00972132
  2   H            X  0.53781158  0.61706454  0.25028336
                   Y  0.17478419  0.21525118  0.06817814
                   Z -0.19925583 -0.23958274 -0.09659479
  3   C            X  0.00004740 -0.00053280 -0.00010493
                   Y -0.00012222  0.00013665 -0.00051647
                   Z  0.00062322 -0.00012093 -0.00008571
  4   H            X -0.07559394 -0.02499256  0.16604363
                   Y -0.36801876 -0.03037507  0.80417705
                   Z -0.12734471 -0.01185048  0.29512863
  5   H            X -0.47196071  0.44462111 -0.18483573
                   Y  0.41781744 -0.40986111  0.14634184
                   Z -0.21814246  0.21741428 -0.08553162
  6   N            X -0.00000409 -0.00014338 -0.00003251
                   Y -0.00003278  0.00002865 -0.00013731
                   Z -0.00157051 -0.00002885  0.00027117

 TRANS. SAYVETZ    X -0.00000102 -0.00000124 -0.00000001
                   Y -0.00000449  0.00000064 -0.00000281
                   Z  0.00000706 -0.00000066 -0.00000070
               TOTAL  0.00000843  0.00000154  0.00000290

   ROT. SAYVETZ    X -0.00077513  0.00134389 -0.00229833
                   Y -0.00138452  0.00010338 -0.00051603
                   Z  0.00040287 -0.00226521  0.00119706
               TOTAL  0.00163707  0.00263589  0.00264227

 REFERENCE ON SAYVETZ CONDITIONS - A. SAYVETZ, J.CHEM.PHYS., 7, 383-389(1939).

 NOTE - THE MODES J,K ARE ORTHONORMALIZED ACCORDING TO
 SUM ON I   M(I) * (X(I,J)*X(I,K) + Y(I,J)*Y(I,K) + Z(I,J)*Z(I,K)) = DELTA(J,K)

  MODE FREQ(CM**-1)  SYMMETRY  RED. MASS  IR INTENS.
     1     142.965    A        6.466221    0.265930
     2     142.678    A        6.497378    0.265860
     3       0.008    A        6.837763    0.000000
     4       0.054    A        6.841118    0.000000
     5       0.063    A        6.842234    0.000000
     6     325.175    A        3.413685    0.000358
     7     329.134    A        3.418535    0.000459
     8     430.571    A        1.009798    0.000012
     9     957.163    A        4.398993    0.049654
    10    1142.213    A        1.322990    0.028688
    11    1144.855    A        1.320259    0.030214
    12    1499.950    A        1.246742    0.035543
    13    1552.719    A        1.041726    0.187527
    14    1557.109    A        1.042702    0.194466
    15    2370.627    A       12.510295    0.000919
    16    2956.617    A        1.036994    0.088234
    17    3034.027    A        1.102595    0.043724
    18    3076.347    A        1.100642    0.038731

     -------------------------------
     THERMOCHEMISTRY AT T=  298.15 K
     -------------------------------

 USING IDEAL GAS, RIGID ROTOR, HARMONIC NORMAL MODE APPROXIMATIONS.
 P=  1.01325E+05 PASCAL.
 ALL FREQUENCIES ARE SCALED BY   1.00000
 THE MOMENTS OF INERTIA ARE (IN AMU*BOHR**2)
     11.77555   196.74099   196.78492
 THE ROTATIONAL SYMMETRY NUMBER IS  1.0
 THE ROTATIONAL CONSTANTS ARE (IN GHZ)
    153.12136     9.16478     9.16274
      7 -     18 VIBRATIONAL MODES ARE USED IN THERMOCHEMISTRY.
 THE HARMONIC ZERO POINT ENERGY IS (SCALED BY   1.000)
        0.045680 HARTREE/MOLECULE    10025.666047 CM**-1/MOLECULE 
       28.664846 KCAL/MOL              119.933717 KJ/MOL

               Q               LN Q
 ELEC.     1.00000E+00       0.000000
 TRANS.    1.03288E+07      16.150450
 ROT.      7.64320E+03       8.941572
 VIB.      1.46528E+00       0.382047
 TOT.      1.15677E+11      25.474069

              E         H         G         CV        CP        S
           KJ/MOL    KJ/MOL    KJ/MOL   J/MOL-K   J/MOL-K   J/MOL-K
 ELEC.      0.000     0.000     0.000     0.000     0.000     0.000
 TRANS.     3.718     6.197   -40.036    12.472    20.786   155.067
 ROT.       3.718     3.718   -22.166    12.472    12.472    86.815
 VIB.     121.940   121.940   118.987    17.317    17.317     9.905
 TOTAL    129.377   131.855    56.785    42.260    50.574   251.788
 VIB. THERMAL CORRECTION E(T)-E(0) = H(T)-H(0) =  2005.992 J/MOL

              E         H         G         CV        CP        S
         KCAL/MOL  KCAL/MOL  KCAL/MOL CAL/MOL-K CAL/MOL-K CAL/MOL-K
 ELEC.      0.000     0.000     0.000     0.000     0.000     0.000
 TRANS.     0.889     1.481    -9.569     2.981     4.968    37.062
 ROT.       0.889     0.889    -5.298     2.981     2.981    20.749
 VIB.      29.144    29.144    28.438     4.139     4.139     2.367
 TOTAL     30.922    31.514    13.572    10.100    12.088    60.179
 VIB. THERMAL CORRECTION E(T)-E(0) = H(T)-H(0) =   479.444 CAL/MOL

     *******************************************************
     * THIS IS NOT A STATIONARY POINT ON THE MOLECULAR PES *
     *     THE VIBRATIONAL ANALYSIS IS NOT VALID !!!       *
     *******************************************************
 ......END OF NORMAL COORDINATE ANALYSIS......
 CPU     0: STEP CPU TIME=     0.00 TOTAL CPU TIME=         15.9 (      0.3 MIN)
 TOTAL WALL CLOCK TIME=         16.5 SECONDS, CPU UTILIZATION IS    96.25%
               580000  WORDS OF DYNAMIC MEMORY USED
 EXECUTION OF GAMESS TERMINATED NORMALLY Thu Apr 11 09:34:26 2019
 DDI: 1129520 bytes (1.1 MB / 0 MWords) used by master data server.

 ----------------------------------------
 CPU timing information for all processes
 ========================================
 0: 15.418 + 0.496 = 15.915
 1: 15.633 + 0.376 = 16.10
 2: 15.473 + 0.395 = 15.869
 3: 15.606 + 0.383 = 15.990
 ----------------------------------------
 ddikick.x: exited gracefully.
----- accounting info -----
Files used on the master node chimie-106 were:
-rw-rw-r-- 1 chimie chimie  135899 avril 11 09:34 /tmp/ch3cn.dat
-rw-r--r-- 1 chimie chimie     394 avril 11 09:34 /tmp/ch3cn.F05
-rw-rw-r-- 1 chimie chimie 3420304 avril 11 09:34 /tmp/ch3cn.F08
-rw-rw-r-- 1 chimie chimie 3780336 avril 11 09:34 /tmp/ch3cn.F08.001
-rw-rw-r-- 1 chimie chimie 3780336 avril 11 09:34 /tmp/ch3cn.F08.002
-rw-rw-r-- 1 chimie chimie 3780336 avril 11 09:34 /tmp/ch3cn.F08.003
-rw-rw-r-- 1 chimie chimie 1963200 avril 11 09:34 /tmp/ch3cn.F10
-rw-rw-r-- 1 chimie chimie   15167 avril 11 09:34 /tmp/ch3cn.rst
jeudi 11 avril 2019, 09:34:29 (UTC+0200)
0.0u 0.0s 0:19.61 0.3% 0+0k 0+16io 0pf+0w
