
                                 *****************
                                 * O   R   C   A *
                                 *****************

           --- An Ab Initio, DFT and Semiempirical electronic structure package ---

                  #######################################################
                  #                        -***-                        #
                  #  Department of molecular theory and spectroscopy    #
                  #              Directorship: Frank Neese              #
                  # Max Planck Institute for Chemical Energy Conversion #
                  #                  D-45470 Muelheim/Ruhr              #
                  #                       Germany                       #
                  #                                                     #
                  #                  All rights reserved                #
                  #                        -***-                        #
                  #######################################################


                         Program Version 4.0.1.2 - RELEASE -


 With contributions from (in alphabetic order):
   Daniel Aravena         : Magnetic Properties
   Michael Atanasov       : Ab Initio Ligand Field Theory
   Ute Becker             : Parallelization
   Martin Brehm           : Molecular dynamics
   Dmytro Bykov           : SCF Hessian
   Vijay G. Chilkuri      : MRCI spin determinant printing
   Dipayan Datta          : RHF DLPNO-CCSD density
   Achintya Kumar Dutta   : EOM-CC, STEOM-CC
   Dmitry Ganyushin       : Spin-Orbit,Spin-Spin,Magnetic field MRCI
   Yang Guo               : DLPNO-NEVPT2, CIM, IAO-localization
   Andreas Hansen         : Spin unrestricted coupled pair/coupled cluster methods
   Lee Huntington         : MR-EOM, pCC
   Robert Izsak           : Overlap fitted RIJCOSX, COSX-SCS-MP3, EOM
   Christian Kollmar      : KDIIS, OOCD, Brueckner-CCSD(T), CCSD density
   Simone Kossmann        : Meta GGA functionals, TD-DFT gradient, OOMP2, MP2 Hessian
   Martin Krupicka        : AUTO-CI
   Dagmar Lenk            : GEPOL surface
   Dimitrios Liakos       : Extrapolation schemes; parallel MDCI
   Dimitrios Manganas     : ROCIS; embedding schemes
   Dimitrios Pantazis     : SARC Basis sets
   Taras Petrenko         : DFT Hessian,TD-DFT gradient, ASA, ECA, R-Raman, ABS, FL, XAS/XES, NRVS
   Peter Pinski           : DLPNO-MP2
   Christoph Reimann      : Effective Core Potentials
   Marius Retegan         : Local ZFS, SOC
   Christoph Riplinger    : Optimizer, TS searches, QM/MM, DLPNO-CCSD(T), (RO)-DLPNO pert. Triples
   Tobias Risthaus        : Range-separated hybrids, TD-DFT gradient, RPA, STAB
   Michael Roemelt        : Restricted open shell CIS
   Masaaki Saitow         : Open-shell DLPNO
   Barbara Sandhoefer     : DKH picture change effects
   Kantharuban Sivalingam : CASSCF convergence, NEVPT2, FIC-MRCI
   Georgi Stoychev        : AutoAux
   Boris Wezisla          : Elementary symmetry handling
   Frank Wennmohs         : Technical directorship


 We gratefully acknowledge several colleagues who have allowed us to
 interface, adapt or use parts of their codes:
   Stefan Grimme, W. Hujo, H. Kruse,             : VdW corrections, initial TS optimization,
                  C. Bannwarth                     DFT functionals, gCP, sTDA/sTD-DF
   Ed Valeev                                     : LibInt (2-el integral package), F12 methods
   Garnet Chan, S. Sharma, J. Yang, R. Olivares  : DMRG
   Ulf Ekstrom                                   : XCFun DFT Library
   Mihaly Kallay                                 : mrcc  (arbitrary order and MRCC methods)
   Andreas Klamt, Michael Diedenhofen            : otool_cosmo (COSMO solvation model)
   Jiri Pittner, Ondrej Demel                    : Mk-CCSD
   Frank Weinhold                                : gennbo (NPA and NBO analysis)
   Christopher J. Cramer and Donald G. Truhlar   : smd solvation model


 Your calculation uses the libint2 library for the computation of 2-el integrals
 For citations please refer to: http://libint.valeyev.net

 This ORCA versions uses:
   CBLAS   interface :  Fast vector & matrix operations
   LAPACKE interface :  Fast linear algebra routines
   SCALAPACK package :  Parallel linear algebra routines


Your calculation utilizes the basis: def2-TZVP
   F. Weigend and R. Ahlrichs, Phys. Chem. Chem. Phys. 7, 3297 (2005).

Your calculation utilizes the auxiliary basis: def2/J
   F. Weigend, Phys. Chem. Chem. Phys. 8, 1057 (2006).

================================================================================
                                        WARNINGS
                       Please study these warnings very carefully!
================================================================================

Warning: TCutStore was < 0. Adjusted to Thresh (uncritical)

WARNING: your system is open-shell and RHF/RKS was chosen
  ===> : WILL SWITCH to UHF/UKS


INFO   : the flag for use of LIBINT has been found!

================================================================================
                                       INPUT FILE
================================================================================
NAME = test.inp
|  1> ! RKS BP def2-TZVP RI def2/J
|  2> ! TightSCF Grid5 NoFinalGrid
|  3> ! Freq 
|  4> * xyz 0 2
|  5> C     -0.264044    0.000000    0.000000
|  6> H     -0.519209   -0.411764    0.966816
|  7> H     -0.519208   -0.631408   -0.840004
|  8> H     -0.519221    1.043166   -0.126811
|  9> H      1.132971    0.000008    0.000001
| 10> H      2.008933    0.000000   -0.000001
| 11> *
| 12> 
| 13>                          ****END OF INPUT****
================================================================================

                       ****************************
                       * Single Point Calculation *
                       ****************************

---------------------------------
CARTESIAN COORDINATES (ANGSTROEM)
---------------------------------
  C     -0.264044    0.000000    0.000000
  H     -0.519209   -0.411764    0.966816
  H     -0.519208   -0.631408   -0.840004
  H     -0.519221    1.043166   -0.126811
  H      1.132971    0.000008    0.000001
  H      2.008933    0.000000   -0.000001

----------------------------
CARTESIAN COORDINATES (A.U.)
----------------------------
  NO LB      ZA    FRAG     MASS         X           Y           Z
   0 C     6.0000    0    12.011   -0.498971    0.000000    0.000000
   1 H     1.0000    0     1.008   -0.981163   -0.778121    1.827017
   2 H     1.0000    0     1.008   -0.981161   -1.193188   -1.587378
   3 H     1.0000    0     1.008   -0.981185    1.971298   -0.239638
   4 H     1.0000    0     1.008    2.141005    0.000015    0.000002
   5 H     1.0000    0     1.008    3.796333    0.000000   -0.000002

--------------------------------
INTERNAL COORDINATES (ANGSTROEM)
--------------------------------
 C      0   0   0     0.000000000000     0.00000000     0.00000000
 H      1   0   0     1.081384273409     0.00000000     0.00000000
 H      1   2   0     1.081384043426   114.61261019     0.00000000
 H      1   2   3     1.081384129071   114.61258483   135.54003286
 H      1   2   3     1.397015000023   103.64839450   247.77010402
 H      5   1   2     0.875962000039   179.99913146    78.34164088

---------------------------
INTERNAL COORDINATES (A.U.)
---------------------------
 C      0   0   0     0.000000000000     0.00000000     0.00000000
 H      1   0   0     2.043520122273     0.00000000     0.00000000
 H      1   2   0     2.043519687667   114.61261019     0.00000000
 H      1   2   3     2.043519849513   114.61258483   135.54003286
 H      1   2   3     2.639975755024   103.64839450   247.77010402
 H      5   1   2     1.655328283795   179.99913146    78.34164088

---------------------
BASIS SET INFORMATION
---------------------
There are 2 groups of distinct atoms

 Group   1 Type C   : 11s6p2d1f contracted to 5s3p2d1f pattern {62111/411/11/1}
 Group   2 Type H   : 5s1p contracted to 3s1p pattern {311/1}

Atom   0C    basis set group =>   1
Atom   1H    basis set group =>   2
Atom   2H    basis set group =>   2
Atom   3H    basis set group =>   2
Atom   4H    basis set group =>   2
Atom   5H    basis set group =>   2
-------------------------------
AUXILIARY BASIS SET INFORMATION
-------------------------------
There are 2 groups of distinct atoms

 Group   1 Type C   : 12s5p4d2f1g contracted to 6s4p3d1f1g pattern {711111/2111/211/2/1}
 Group   2 Type H   : 5s2p1d contracted to 3s1p1d pattern {311/2/1}

Atom   0C    basis set group =>   1
Atom   1H    basis set group =>   2
Atom   2H    basis set group =>   2
Atom   3H    basis set group =>   2
Atom   4H    basis set group =>   2
Atom   5H    basis set group =>   2

Checking for AutoStart:
The File: test.gbw exists
Trying to determine its content:
     ... Fine, the file contains calculation information
     ... Fine, the calculation information was read
     ... Fine, the file contains a basis set
     ... Fine, the basis set was read
     ... Fine, the file contains a geometry
     ... Fine, the geometry was read
     ... Fine, the file contains a set of orbitals
     ... Fine, the orbitals can be read
     => possible old guess file was deleted
     => GBW file was renamed to GES file
     => GES file is set as startup file
     => Guess is set to MORead
     ... now leaving AutoStart

------------------------------------------------------------------------------
                           ORCA GTO INTEGRAL CALCULATION
                           -- RI-GTO INTEGRALS CHOSEN --
------------------------------------------------------------------------------

                         BASIS SET STATISTICS AND STARTUP INFO

Gaussian basis set:
 # of primitive gaussian shells          ...   50
 # of primitive gaussian functions       ...   86
 # of contracted shells                  ...   31
 # of contracted basis functions         ...   61
 Highest angular momentum                ...    3
 Maximum contraction depth               ...    6
Auxiliary gaussian basis set:
 # of primitive gaussian shells          ...   64
 # of primitive gaussian functions       ...  150
 # of contracted shells                  ...   40
 # of contracted aux-basis functions     ...  104
 Highest angular momentum                ...    4
 Maximum contraction depth               ...    7
Ratio of auxiliary to basis functions    ...  1.70
Integral package used                  ... LIBINT
 One Electron integrals                  ... done
 Ordering auxiliary basis shells         ... done
 Integral threshhold             Thresh  ...  2.500e-11
 Primitive cut-off               TCut    ...  2.500e-12
 Pre-screening matrix                    ... done
 Shell pair data                         ... 
 Ordering of the shell pairs             ... done (   0.000 sec) 496 of 496 pairs
 Determination of significant pairs      ... done (   0.000 sec)
 Creation of shell pair data             ... done (   0.000 sec)
 Storage of shell pair data              ... done (   0.001 sec)
 Shell pair data done in (   0.001 sec)
 Computing two index integrals           ... done
 Cholesky decomposition of the V-matrix  ... done


Timings:
 Total evaluation time                   ...   0.147 sec (  0.002 min)
 One electron matrix time                ...   0.005 sec (  0.000 min) =  3.7%
 Schwartz matrix evaluation time         ...   0.125 sec (  0.002 min) = 84.6%
 Two index repulsion integral time       ...   0.001 sec (  0.000 min) =  0.6%
 Cholesky decomposition of V             ...   0.001 sec (  0.000 min) =  0.4%
 Three index repulsion integral time     ...   0.000 sec (  0.000 min) =  0.0%

-------------------------------------------------------------------------------
                                 ORCA SCF
-------------------------------------------------------------------------------

------------
SCF SETTINGS
------------
Hamiltonian:
 Density Functional     Method          .... DFT(GTOs)
 Exchange Functional    Exchange        .... B88
   X-Alpha parameter    XAlpha          ....  0.666667
   Becke's b parameter  XBeta           ....  0.004200
 Correlation Functional Correlation     .... P86
 LDA part of GGA corr.  LDAOpt          .... PW91-LDA
 Gradients option       PostSCFGGA      .... off
 RI-approximation to the Coulomb term is turned on
   Number of auxiliary basis functions  .... 104


General Settings:
 Integral files         IntName         .... test
 Hartree-Fock type      HFTyp           .... UHF
 Total Charge           Charge          ....    0
 Multiplicity           Mult            ....    2
 Number of Electrons    NEL             ....   11
 Basis Dimension        Dim             ....   61
 Nuclear Repulsion      ENuc            ....     15.3448907456 Eh

Convergence Acceleration:
 DIIS                   CNVDIIS         .... on
   Start iteration      DIISMaxIt       ....    12
   Startup error        DIISStart       ....  0.200000
   # of expansion vecs  DIISMaxEq       ....     5
   Bias factor          DIISBfac        ....   1.050
   Max. coefficient     DIISMaxC        ....  10.000
 Newton-Raphson         CNVNR           .... off
 SOSCF                  CNVSOSCF        .... off
 Level Shifting         CNVShift        .... on
   Level shift para.    LevelShift      ....    0.2500
   Turn off err/grad.   ShiftErr        ....    0.0010
 Zerner damping         CNVZerner       .... off
 Static damping         CNVDamp         .... on
   Fraction old density DampFac         ....    0.7000
   Max. Damping (<1)    DampMax         ....    0.9800
   Min. Damping (>=0)   DampMin         ....    0.0000
   Turn off err/grad.   DampErr         ....    0.1000
 Fernandez-Rico         CNVRico         .... off

SCF Procedure:
 Maximum # iterations   MaxIter         ....   125
 SCF integral mode      SCFMode         .... Direct
   Integral package                     .... LIBINT
 Reset frequeny         DirectResetFreq ....    20
 Integral Threshold     Thresh          ....  2.500e-11 Eh
 Primitive CutOff       TCut            ....  2.500e-12 Eh

Convergence Tolerance:
 Convergence Check Mode ConvCheckMode   .... Total+1el-Energy
 Convergence forced     ConvForced      .... 0
 Energy Change          TolE            ....  1.000e-08 Eh
 1-El. energy change                    ....  1.000e-05 Eh
 DIIS Error             TolErr          ....  5.000e-07


Diagonalization of the overlap matrix:
Smallest eigenvalue                        ... 1.145e-03
Time for diagonalization                   ...    0.001 sec
Threshold for overlap eigenvalues          ... 1.000e-08
Number of eigenvalues below threshold      ... 0
Time for construction of square roots      ...    0.001 sec
Total time needed                          ...    0.002 sec

---------------------
INITIAL GUESS: MOREAD
---------------------
Guess MOs are being read from file: test.ges
Input geometry compatible with but different from current geometry
Input basis set matches current basis set (good)
MOs were renormalized
MOs were reorthogonalized (Cholesky)
                      ------------------
                      INITIAL GUESS DONE (   0.0 sec)
                      ------------------
-------------------
DFT GRID GENERATION
-------------------

General Integration Accuracy     IntAcc      ...  5.010
Radial Grid Type                 RadialGrid  ... Gauss-Chebyshev
Angular Grid (max. acc.)         AngularGrid ... Lebedev-434
Angular grid pruning method      GridPruning ... 3 (G Style)
Weight generation scheme         WeightScheme... Becke
Basis function cutoff            BFCut       ...    1.0000e-11
Integration weight cutoff        WCut        ...    1.0000e-14
Grids for H and He will be reduced by one unit

# of grid points (after initial pruning)     ...  44158 (   0.0 sec)
# of grid points (after weights+screening)   ...  42707 (   0.0 sec)
nearest neighbour list constructed           ...    0.0 sec
Grid point re-assignment to atoms done       ...    0.0 sec
Grid point division into batches done        ...    0.2 sec
Reduced shell lists constructed in    0.4 sec

Total number of grid points                  ...    42707
Total number of batches                      ...      670
Average number of points per batch           ...       63
Average number of grid points per atom       ...     7118
Average number of shells per batch           ...    25.23 (81.38%)
Average number of basis functions per batch  ...    50.42 (82.66%)
Average number of large shells per batch     ...    22.33 (88.50%)
Average number of large basis fcns per batch ...    44.76 (88.76%)
Maximum spatial batch extension              ...  19.88, 19.10, 19.88 au
Average spatial batch extension              ...   2.45,  2.50,  2.45 au

Time for grid setup =    0.456 sec

--------------
SCF ITERATIONS
--------------
ITER       Energy         Delta-E        Max-DP      RMS-DP      [F,P]     Damp
               ***  Starting incremental Fock matrix formation  ***
  0    -39.8921490064   0.000000000000 0.07712707  0.00350581  0.4596317 0.7000
  1    -40.2037675814  -0.311618574982 0.06638088  0.00304695  0.3559089 0.7000
  2    -40.4414436838  -0.237676102423 0.04928411  0.00235739  0.2606122 0.7000
                               ***Turning on DIIS***
  3    -40.6122512468  -0.170807562946 0.03521666  0.00176884  0.1876043 0.7000
  4    -40.7333007298  -0.121049483066 0.02508506  0.00131171  0.1340070 0.7000
  5    -40.8186226044  -0.085321874560 0.05925337  0.00320164  0.0952331 0.0000
  6    -41.0196975363  -0.201074931943 0.00383033  0.00015462  0.0025607 0.0000
  7    -41.0198243704  -0.000126834091 0.00186833  0.00007567  0.0013904 0.0000
  8    -41.0198544055  -0.000030035032 0.00191179  0.00008189  0.0007588 0.0000
  9    -41.0198650497  -0.000010644213 0.00021414  0.00000982  0.0005051 0.0000
 10    -41.0198655667  -0.000000517005 0.00009570  0.00000314  0.0001246 0.0000
 11    -41.0198656039  -0.000000037252 0.00001789  0.00000068  0.0000247 0.0000
 12    -41.0198656058  -0.000000001922 0.00000737  0.00000025  0.0000071 0.0000
                 **** Energy Check signals convergence ****

               *****************************************************
               *                     SUCCESS                       *
               *           SCF CONVERGED AFTER  13 CYCLES          *
               *****************************************************


----------------
TOTAL SCF ENERGY
----------------

Total Energy       :          -41.01986561 Eh           -1116.20729 eV

Components:
Nuclear Repulsion  :           15.34489075 Eh             417.55571 eV
Electronic Energy  :          -56.36475635 Eh           -1533.76300 eV
One Electron Energy:          -84.01560311 Eh           -2286.18079 eV
Two Electron Energy:           27.65084676 Eh             752.41779 eV

Virial components:
Potential Energy   :          -81.82024111 Eh           -2226.44195 eV
Kinetic Energy     :           40.80037551 Eh            1110.23466 eV
Virial Ratio       :            2.00537961


DFT components:
N(Alpha)           :        5.999999863645 electrons
N(Beta)            :        4.999999829236 electrons
N(Total)           :       10.999999692881 electrons
E(X)               :       -6.863201433016 Eh       
E(C)               :       -0.344315735814 Eh       
E(XC)              :       -7.207517168830 Eh       

---------------
SCF CONVERGENCE
---------------

  Last Energy change         ...    9.0665e-11  Tolerance :   1.0000e-08
  Last MAX-Density change    ...    9.8719e-07  Tolerance :   1.0000e-07
  Last RMS-Density change    ...    4.3905e-08  Tolerance :   5.0000e-09
  Last DIIS Error            ...    1.1932e-06  Tolerance :   5.0000e-07

             **** THE GBW FILE WAS UPDATED (test.gbw) ****
             **** DENSITY FILE WAS UPDATED (test.scfp.tmp) ****
             **** ENERGY FILE WAS UPDATED (test.en.tmp) ****
----------------------
UHF SPIN CONTAMINATION
----------------------

Warning: in a DFT calculation there is little theoretical justification to 
         calculate <S**2> as in Hartree-Fock theory. We will do it anyways
         but you should keep in mind that the values have only limited relevance

Expectation value of <S**2>     :     0.755450
Ideal value S*(S+1) for S=0.5   :     0.750000
Deviation                       :     0.005450

----------------
ORBITAL ENERGIES
----------------
                 SPIN UP ORBITALS
  NO   OCC          E(Eh)            E(eV) 
   0   1.0000      -9.908109      -269.6134 
   1   1.0000      -0.643082       -17.4992 
   2   1.0000      -0.409352       -11.1390 
   3   1.0000      -0.377242       -10.2653 
   4   1.0000      -0.377242       -10.2653 
   5   1.0000      -0.185381        -5.0445 
   6   0.0000       0.041470         1.1285 
   7   0.0000       0.094956         2.5839 
   8   0.0000       0.100022         2.7217 
   9   0.0000       0.100022         2.7217 
  10   0.0000       0.171672         4.6714 
  11   0.0000       0.171672         4.6714 
  12   0.0000       0.207835         5.6555 
  13   0.0000       0.291607         7.9350 
  14   0.0000       0.384879        10.4731 
  15   0.0000       0.433976        11.8091 
  16   0.0000       0.433976        11.8091 
  17   0.0000       0.448215        12.1965 
  18   0.0000       0.521029        14.1779 
  19   0.0000       0.526100        14.3159 
  20   0.0000       0.526101        14.3159 
  21   0.0000       0.859847        23.3976 
  22   0.0000       0.859848        23.3976 
  23   0.0000       0.918782        25.0013 
  24   0.0000       1.171063        31.8663 
  25   0.0000       1.171063        31.8663 
  26   0.0000       1.381204        37.5845 
  27   0.0000       1.422239        38.7011 
  28   0.0000       1.422240        38.7011 
  29   0.0000       1.425869        38.7999 
  30   0.0000       1.429043        38.8862 
  31   0.0000       1.583269        43.0829 
  32   0.0000       1.583269        43.0829 
  33   0.0000       1.675172        45.5838 
  34   0.0000       1.929343        52.5001 
  35   0.0000       1.976420        53.7811 
  36   0.0000       1.976421        53.7812 
  37   0.0000       2.067503        56.2596 
  38   0.0000       2.106242        57.3138 
  39   0.0000       2.106243        57.3138 
  40   0.0000       2.330748        63.4229 
  41   0.0000       2.341917        63.7268 
  42   0.0000       2.341918        63.7268 
  43   0.0000       2.475457        67.3606 
  44   0.0000       2.481651        67.5292 
  45   0.0000       2.481652        67.5292 
  46   0.0000       2.646625        72.0183 
  47   0.0000       2.847555        77.4859 
  48   0.0000       2.847555        77.4859 
  49   0.0000       3.007170        81.8293 
  50   0.0000       3.150821        85.7382 
  51   0.0000       3.150822        85.7382 
  52   0.0000       3.328074        90.5615 
  53   0.0000       3.328075        90.5615 
  54   0.0000       3.379813        91.9694 
  55   0.0000       3.524858        95.9163 
  56   0.0000       4.021743       109.4372 
  57   0.0000       4.028623       109.6244 
  58   0.0000       4.028624       109.6244 
  59   0.0000       4.440416       120.8299 
  60   0.0000      21.805577       593.3599 

                 SPIN DOWN ORBITALS
  NO   OCC          E(Eh)            E(eV) 
   0   1.0000      -9.897991      -269.3380 
   1   1.0000      -0.620827       -16.8936 
   2   1.0000      -0.378355       -10.2955 
   3   1.0000      -0.369993       -10.0680 
   4   1.0000      -0.369993       -10.0680 
   5   0.0000      -0.116717        -3.1760 
   6   0.0000       0.047324         1.2877 
   7   0.0000       0.104408         2.8411 
   8   0.0000       0.104408         2.8411 
   9   0.0000       0.117173         3.1884 
  10   0.0000       0.173493         4.7210 
  11   0.0000       0.173494         4.7210 
  12   0.0000       0.239036         6.5045 
  13   0.0000       0.315183         8.5766 
  14   0.0000       0.395786        10.7699 
  15   0.0000       0.440821        11.9954 
  16   0.0000       0.440822        11.9954 
  17   0.0000       0.466776        12.7016 
  18   0.0000       0.533723        14.5233 
  19   0.0000       0.544178        14.8078 
  20   0.0000       0.544179        14.8079 
  21   0.0000       0.870056        23.6754 
  22   0.0000       0.870057        23.6755 
  23   0.0000       0.954140        25.9635 
  24   0.0000       1.200212        32.6594 
  25   0.0000       1.200212        32.6594 
  26   0.0000       1.403995        38.2047 
  27   0.0000       1.426738        38.8235 
  28   0.0000       1.439252        39.1640 
  29   0.0000       1.439254        39.1641 
  30   0.0000       1.475786        40.1582 
  31   0.0000       1.610406        43.8214 
  32   0.0000       1.610406        43.8214 
  33   0.0000       1.705932        46.4208 
  34   0.0000       1.935092        52.6565 
  35   0.0000       1.990235        54.1571 
  36   0.0000       1.990236        54.1571 
  37   0.0000       2.109322        57.3976 
  38   0.0000       2.112877        57.4943 
  39   0.0000       2.112879        57.4944 
  40   0.0000       2.341700        63.7209 
  41   0.0000       2.348842        63.9153 
  42   0.0000       2.348844        63.9153 
  43   0.0000       2.490660        67.7743 
  44   0.0000       2.490661        67.7743 
  45   0.0000       2.521172        68.6046 
  46   0.0000       2.687659        73.1349 
  47   0.0000       2.893503        78.7362 
  48   0.0000       2.893503        78.7362 
  49   0.0000       3.030891        82.4747 
  50   0.0000       3.184887        86.6652 
  51   0.0000       3.184887        86.6652 
  52   0.0000       3.355191        91.2994 
  53   0.0000       3.355193        91.2994 
  54   0.0000       3.387115        92.1681 
  55   0.0000       3.565835        97.0313 
  56   0.0000       4.043489       110.0289 
  57   0.0000       4.043490       110.0289 
  58   0.0000       4.069681       110.7417 
  59   0.0000       4.456395       121.2647 
  60   0.0000      21.820541       593.7671 

                    ********************************
                    * MULLIKEN POPULATION ANALYSIS *
                    ********************************

--------------------------------------------
MULLIKEN ATOMIC CHARGES AND SPIN POPULATIONS
--------------------------------------------
   0 C :   -0.414964    0.629991
   1 H :    0.138456   -0.011070
   2 H :    0.138454   -0.011069
   3 H :    0.138453   -0.011067
   4 H :    0.045099   -0.095719
   5 H :   -0.045499    0.498933
Sum of atomic charges         :   -0.0000000
Sum of atomic spin populations:    1.0000000

-----------------------------------------------------
MULLIKEN REDUCED ORBITAL CHARGES AND SPIN POPULATIONS
-----------------------------------------------------
CHARGE
  0 C s       :     3.314500  s :     3.314500
      pz      :     1.062232  p :     3.080565
      px      :     0.956104
      py      :     1.062229
      dz2     :     0.004855  d :     0.018095
      dxz     :     0.000414
      dyz     :     0.002154
      dx2y2   :     0.010258
      dxy     :     0.000414
      f0      :     0.000118  f :     0.001805
      f+1     :     0.000243
      f-1     :     0.000792
      f+2     :     0.000116
      f-2     :    -0.000088
      f+3     :     0.000464
      f-3     :     0.000159
  1 H s       :     0.840086  s :     0.840086
      pz      :     0.010289  p :     0.021458
      px      :     0.005742
      py      :     0.005427
  2 H s       :     0.840087  s :     0.840087
      pz      :     0.008833  p :     0.021458
      px      :     0.005742
      py      :     0.006883
  3 H s       :     0.840088  s :     0.840088
      pz      :     0.004452  p :     0.021458
      px      :     0.005742
      py      :     0.011264
  4 H s       :     0.925532  s :     0.925532
      pz      :     0.001938  p :     0.029369
      px      :     0.025492
      py      :     0.001938
  5 H s       :     1.033749  s :     1.033749
      pz      :     0.000043  p :     0.011750
      px      :     0.011664
      py      :     0.000043

SPIN
  0 C s       :     0.045965  s :     0.045965
      pz      :     0.021396  p :     0.583306
      px      :     0.540518
      py      :     0.021393
      dz2     :     0.000595  d :     0.001142
      dxz     :    -0.000401
      dyz     :     0.000437
      dx2y2   :     0.000912
      dxy     :    -0.000401
      f0      :    -0.000134  f :    -0.000421
      f+1     :     0.000125
      f-1     :    -0.000083
      f+2     :    -0.000217
      f-2     :     0.000010
      f+3     :     0.000202
      f-3     :    -0.000324
  1 H s       :    -0.014202  s :    -0.014202
      pz      :     0.000173  p :     0.003132
      px      :     0.002940
      py      :     0.000019
  2 H s       :    -0.014201  s :    -0.014201
      pz      :     0.000127  p :     0.003132
      px      :     0.002940
      py      :     0.000065
  3 H s       :    -0.014199  s :    -0.014199
      pz      :    -0.000012  p :     0.003132
      px      :     0.002940
      py      :     0.000204
  4 H s       :    -0.117996  s :    -0.117996
      pz      :    -0.000032  p :     0.022276
      px      :     0.022340
      py      :    -0.000032
  5 H s       :     0.498937  s :     0.498937
      pz      :     0.000009  p :    -0.000004
      px      :    -0.000021
      py      :     0.000009


                     *******************************
                     * LOEWDIN POPULATION ANALYSIS *
                     *******************************

-------------------------------------------
LOEWDIN ATOMIC CHARGES AND SPIN POPULATIONS
-------------------------------------------
   0 C :   -0.368521    0.537187
   1 H :    0.099264    0.004492
   2 H :    0.099264    0.004492
   3 H :    0.099264    0.004493
   4 H :    0.083317    0.050044
   5 H :   -0.012588    0.399291

----------------------------------------------------
LOEWDIN REDUCED ORBITAL CHARGES AND SPIN POPULATIONS
----------------------------------------------------
CHARGE
  0 C s       :     2.975240  s :     2.975240
      pz      :     1.132804  p :     3.265381
      px      :     0.999773
      py      :     1.132803
      dz2     :     0.033103  d :     0.116440
      dxz     :     0.005898
      dyz     :     0.027767
      dx2y2   :     0.043774
      dxy     :     0.005898
      f0      :     0.000654  f :     0.011461
      f+1     :     0.002145
      f-1     :     0.002574
      f+2     :     0.000833
      f-2     :     0.001439
      f+3     :     0.002616
      f-3     :     0.001200
  1 H s       :     0.831426  s :     0.831426
      pz      :     0.033833  p :     0.069310
      px      :     0.018140
      py      :     0.017337
  2 H s       :     0.831426  s :     0.831426
      pz      :     0.028893  p :     0.069310
      px      :     0.018140
      py      :     0.022276
  3 H s       :     0.831427  s :     0.831427
      pz      :     0.014028  p :     0.069310
      px      :     0.018140
      py      :     0.037141
  4 H s       :     0.810738  s :     0.810738
      pz      :     0.003795  p :     0.105945
      px      :     0.098356
      py      :     0.003795
  5 H s       :     0.985890  s :     0.985890
      pz      :     0.000033  p :     0.026697
      px      :     0.026632
      py      :     0.000033

SPIN
  0 C s       :     0.042719  s :     0.042719
      pz      :     0.010028  p :     0.499964
      px      :     0.479910
      py      :     0.010026
      dz2     :    -0.001265  d :    -0.005371
      dxz     :    -0.000671
      dyz     :    -0.001030
      dx2y2   :    -0.001735
      dxy     :    -0.000671
      f0      :    -0.000109  f :    -0.000124
      f+1     :     0.000149
      f-1     :     0.000082
      f+2     :    -0.000192
      f-2     :    -0.000041
      f+3     :     0.000276
      f-3     :    -0.000290
  1 H s       :    -0.008198  s :    -0.008198
      pz      :     0.001308  p :     0.012690
      px      :     0.011046
      py      :     0.000336
  2 H s       :    -0.008198  s :    -0.008198
      pz      :     0.001017  p :     0.012690
      px      :     0.011046
      py      :     0.000627
  3 H s       :    -0.008197  s :    -0.008197
      pz      :     0.000141  p :     0.012690
      px      :     0.011046
      py      :     0.001503
  4 H s       :    -0.034834  s :    -0.034834
      pz      :     0.000120  p :     0.084878
      px      :     0.084639
      py      :     0.000120
  5 H s       :     0.397060  s :     0.397060
      pz      :     0.000002  p :     0.002231
      px      :     0.002226
      py      :     0.000002


                      *****************************
                      * MAYER POPULATION ANALYSIS *
                      *****************************

  NA   - Mulliken gross atomic population
  ZA   - Total nuclear charge
  QA   - Mulliken gross atomic charge
  VA   - Mayer's total valence
  BVA  - Mayer's bonded valence
  FA   - Mayer's free valence

  ATOM       NA         ZA         QA         VA         BVA        FA
  0 C      6.4150     6.0000    -0.4150     3.7545     3.4223     0.3322
  1 H      0.8615     1.0000     0.1385     0.9739     0.9735     0.0004
  2 H      0.8615     1.0000     0.1385     0.9739     0.9735     0.0004
  3 H      0.8615     1.0000     0.1385     0.9739     0.9735     0.0004
  4 H      0.9549     1.0000     0.0451     1.0292     1.0146     0.0146
  5 H      1.0455     1.0000    -0.0455     0.9538     0.7017     0.2521

  Mayer bond orders larger than 0.1
B(  0-C ,  1-H ) :   0.9671 B(  0-C ,  2-H ) :   0.9671 B(  0-C ,  3-H ) :   0.9671 
B(  0-C ,  4-H ) :   0.4312 B(  4-H ,  5-H ) :   0.5897 

-------
TIMINGS
-------

Total SCF time: 0 days 0 hours 0 min 7 sec 

Total time                  ....       7.250 sec
Sum of individual times     ....       7.224 sec  ( 99.6%)

Fock matrix formation       ....       6.707 sec  ( 92.5%)
  Split-RI-J                ....       1.167 sec  ( 17.4% of F)
  XC integration            ....       5.497 sec  ( 82.0% of F)
    Basis function eval.    ....       2.431 sec  ( 44.2% of XC)
    Density eval.           ....       0.768 sec  ( 14.0% of XC)
    XC-Functional eval.     ....       0.759 sec  ( 13.8% of XC)
    XC-Potential eval.      ....       1.299 sec  ( 23.6% of XC)
Diagonalization             ....       0.021 sec  (  0.3%)
Density matrix formation    ....       0.001 sec  (  0.0%)
Population analysis         ....       0.004 sec  (  0.1%)
Initial guess               ....       0.024 sec  (  0.3%)
Orbital Transformation      ....       0.000 sec  (  0.0%)
Orbital Orthonormalization  ....       0.000 sec  (  0.0%)
DIIS solution               ....       0.012 sec  (  0.2%)
Grid generation             ....       0.456 sec  (  6.3%)

-------------------------   --------------------
FINAL SINGLE POINT ENERGY       -41.019865605757
-------------------------   --------------------


                            ***************************************
                            *     ORCA property calculations      *
                            ***************************************

                                    ---------------------
                                    Active property flags
                                    ---------------------
   (+) Dipole Moment


------------------------------------------------------------------------------
                       ORCA ELECTRIC PROPERTIES CALCULATION
------------------------------------------------------------------------------

Dipole Moment Calculation                       ... on
Quadrupole Moment Calculation                   ... off
Polarizability Calculation                      ... off
GBWName                                         ... test.gbw
Electron density file                           ... test.scfp.tmp
The origin for moment calculation is the CENTER OF MASS  = (-0.174498,  0.000000  0.000000)

-------------
DIPOLE MOMENT
-------------
                                X             Y             Z
Electronic contribution:     -2.19784      -0.00000       0.00000
Nuclear contribution   :      1.91948       0.00000       0.00000
                        -----------------------------------------
Total Dipole Moment    :     -0.27836      -0.00000       0.00000
                        -----------------------------------------
Magnitude (a.u.)       :      0.27836
Magnitude (Debye)      :      0.70754


-------------------------------------------------------------------------------
                               ORCA SCF HESSIAN
-------------------------------------------------------------------------------

Hessian of the Kohn-Sham DFT energy:
Kohn-Sham wavefunction type                      ... UKS
Hartree-Fock exchange scaling                    ...    0.000
Number of operators                              ...    2
Number of atoms                                  ...    6
Basis set dimensions                             ...   61
Integral neglect threshold                       ... 2.5e-11
Integral primitive cutoff                        ... 2.5e-12

Setting up DFT Hessian calculations              ... 
Electron density on the grid                     ... found on disk
Building xc-kernel on the grid                   ... done   (      0.1 sec)
                                                     done   (      0.1 sec)

Nuclear repulsion Hessian                        ... done   (      0.0 sec)

----------------------------------------------
Forming right-hand sides of CP-SCF equations     ...
----------------------------------------------
One electron integral derivatives                ... done   (      0.1 sec)
Transforming the overlap derivative matrices     ... done   (      0.0 sec)
Making the Q(x) pseudodensities                  ... done   (      0.0 sec)
Adding the E*S(x)*S(y) terms to the Hessian      ... done   (      0.0 sec)
Calculating energy weighted overlap derivatives  ... done   (      0.0 sec)
Two electron integral derivatives (RI)           ... done   (      0.2 sec)
Exchange-correlation integral derivatives        ... done   (      8.3 sec)
tr(F(y)Q(x)) contribution to the Hessian         ... done   (      0.0 sec)
Response fock operator R(S(x)) (RI)              ... done   (      0.4 sec)
XC Response fock operator R(S(x))                ... done   (      2.8 sec)
tr(F(y)S(x)) contribution to the Hessian         ... done   (      0.0 sec)
Transforming and finalizing RHSs                 ... done   (      0.0 sec)

----------------------------------------------
Solving the CP-SCF equations (RI)                ...
----------------------------------------------
     CP-SCF ITERATION   0: 
     CP-SCF ITERATION   1:      0.003335434204
     CP-SCF ITERATION   2:      0.000339196450
     CP-SCF ITERATION   3:      0.000012213900
     CP-SCF ITERATION   4:      0.000000714780
     CP-SCF ITERATION   5:      0.000000061624
     CP-SCF ITERATION   6:      0.000000009795

                                                 ... done   (     30.0 sec)
Forming perturbed density Hessian contributions  ... done   (      0.0 sec)
Making the perturbed densities                   ... done   (      0.0 sec)
2nd integral derivative contribs (RI)            ... done   (      0.5 sec)
Exchange-correlation Hessian                     ... done   (      8.3 sec)
Dipol derivatives                                ... done   (      0.1 sec)

Total SCF Hessian time: 0 days 0 hours 0 min 50 sec 

Writing the Hessian file to the disk             ... done


-----------------------
VIBRATIONAL FREQUENCIES
-----------------------

   0:         0.00 cm**-1
   1:         0.00 cm**-1
   2:         0.00 cm**-1
   3:         0.00 cm**-1
   4:         0.00 cm**-1
   5:         0.00 cm**-1
   6:      -708.70 cm**-1 ***imaginary mode***
   7:       352.14 cm**-1
   8:       352.17 cm**-1
   9:      1014.90 cm**-1
  10:      1016.12 cm**-1
  11:      1016.12 cm**-1
  12:      1365.40 cm**-1
  13:      1365.41 cm**-1
  14:      2156.33 cm**-1
  15:      3103.24 cm**-1
  16:      3250.19 cm**-1
  17:      3250.19 cm**-1


------------
NORMAL MODES
------------

These modes are the cartesian displacements weighted by the diagonal matrix
M(i,i)=1/sqrt(m[i]) where m[i] is the mass of the displaced atom
Thus, these vectors are normalized but *not* orthogonal

                  0          1          2          3          4          5    
      0       0.000000   0.000000   0.000000   0.000000   0.000000   0.000000
      1       0.000000   0.000000   0.000000   0.000000   0.000000   0.000000
      2       0.000000   0.000000   0.000000   0.000000   0.000000   0.000000
      3       0.000000   0.000000   0.000000   0.000000   0.000000   0.000000
      4       0.000000   0.000000   0.000000   0.000000   0.000000   0.000000
      5       0.000000   0.000000   0.000000   0.000000   0.000000   0.000000
      6       0.000000   0.000000   0.000000   0.000000   0.000000   0.000000
      7       0.000000   0.000000   0.000000   0.000000   0.000000   0.000000
      8       0.000000   0.000000   0.000000   0.000000   0.000000   0.000000
      9       0.000000   0.000000   0.000000   0.000000   0.000000   0.000000
     10       0.000000   0.000000   0.000000   0.000000   0.000000   0.000000
     11       0.000000   0.000000   0.000000   0.000000   0.000000   0.000000
     12       0.000000   0.000000   0.000000   0.000000   0.000000   0.000000
     13       0.000000   0.000000   0.000000   0.000000   0.000000   0.000000
     14       0.000000   0.000000   0.000000   0.000000   0.000000   0.000000
     15       0.000000   0.000000   0.000000   0.000000   0.000000   0.000000
     16       0.000000   0.000000   0.000000   0.000000   0.000000   0.000000
     17       0.000000   0.000000   0.000000   0.000000   0.000000   0.000000
                  6          7          8          9         10         11    
      0       0.137501   0.000002   0.000002  -0.074406   0.000089  -0.000006
      1       0.000003  -0.029574   0.042564  -0.000079  -0.066650  -0.013008
      2       0.000002  -0.042564  -0.029573  -0.000020  -0.013007   0.066650
      3      -0.150573   0.306962   0.488611   0.502478  -0.079812  -0.371828
      4       0.022248   0.068931  -0.083612  -0.047312   0.095253  -0.008468
      5      -0.052280   0.079716   0.044554   0.111414   0.033731  -0.034955
      6      -0.150547  -0.576645   0.021537   0.502193  -0.283010   0.254569
      7       0.034126   0.048959  -0.091244  -0.072651   0.068428   0.049364
      8       0.045421   0.072082   0.064518  -0.096787  -0.023848  -0.061817
      9      -0.150548   0.269669  -0.510148   0.502966   0.361053   0.117366
     10      -0.056400   0.052336  -0.070142   0.120208   0.031556  -0.002789
     11       0.006852   0.093198   0.061148  -0.014565   0.028223  -0.098467
     12      -0.908987  -0.000012  -0.000011  -0.312131   0.000363  -0.000017
     13      -0.000007  -0.169384   0.243794   0.000960   0.825784   0.161152
     14      -0.000001  -0.243792  -0.169403   0.000247   0.161156  -0.825780
     15      -0.277761   0.000002  -0.000009  -0.308904   0.000347  -0.000019
     16       0.000002   0.351556  -0.505971  -0.000261  -0.226847  -0.044263
     17      -0.000012   0.505971   0.351562  -0.000067  -0.044274   0.226838
                 12         13         14         15         16         17    
      0      -0.000005  -0.000001   0.055830   0.030130  -0.000001  -0.000000
      1       0.078085   0.009484   0.000002  -0.000000   0.091027  -0.033465
      2       0.009484  -0.078085   0.000000   0.000001   0.033466   0.091027
      3      -0.059766  -0.206498  -0.058355  -0.118795  -0.009436   0.187322
      4      -0.673508   0.239516   0.013598  -0.221237   0.001884   0.310230
      5      -0.319855  -0.012035  -0.031975   0.519465   0.044021  -0.725971
      6      -0.148935   0.155023  -0.058356  -0.118795  -0.157506  -0.101827
      7      -0.401570  -0.476859   0.020868  -0.339261  -0.390611  -0.270624
      8       0.396521   0.259907   0.027785  -0.451342  -0.536830  -0.333465
      9       0.208725   0.051475  -0.058351  -0.118802   0.166952  -0.085494
     10       0.082872   0.116835  -0.034489   0.560501  -0.697394   0.359699
     11      -0.197174   0.744338   0.004187  -0.068135   0.093505  -0.026684
     12       0.000005   0.000004   0.411752   0.011908   0.000002  -0.000000
     13       0.065308   0.007928  -0.000010  -0.000000   0.003420  -0.001257
     14       0.007933  -0.065309  -0.000003  -0.000000   0.001256   0.003419
     15       0.000025   0.000001  -0.901946  -0.014536  -0.000003   0.000000
     16      -0.003532  -0.000432   0.000007   0.000001  -0.001950   0.000716
     17      -0.000431   0.003533   0.000002  -0.000001  -0.000718  -0.001950


-----------
IR SPECTRUM
-----------

 Mode    freq (cm**-1)   T**2         TX         TY         TZ
-------------------------------------------------------------------
   7:       352.14    0.000260  ( -0.000917  -0.009200  -0.013214)
   8:       352.17    0.000267  (  0.000765   0.013199  -0.009590)
   9:      1014.90    2.444430  (  1.563466   0.001957   0.000487)
  10:      1016.12    2.809505  ( -0.002682   1.645136   0.320977)
  11:      1016.12    2.809126  (  0.000113   0.321168  -1.644986)
  12:      1365.40    4.609853  (  0.006001  -2.131435  -0.258458)
  13:      1365.41    4.602969  (  0.000086  -0.259754   2.129671)
  14:      2156.33   60.479387  (  7.776849  -0.000100  -0.000014)
  15:      3103.24    0.740226  (  0.860363  -0.000750  -0.000169)
  16:      3250.19    7.948063  (  0.002104   2.646095   0.972747)
  17:      3250.19    7.947572  (  0.000365  -0.973151   2.645855)

The first frequency considered to be a vibration is 7
The total number of vibrations considered is 11


--------------------------
THERMOCHEMISTRY AT 298.15K
--------------------------

Temperature         ... 298.15 K
Pressure            ... 1.00 atm
Total Mass          ... 17.05 AMU

Throughout the following assumptions are being made:
  (1) The electronic state is orbitally nondegenerate
      but the spin degeneracy is treated
  (2) There are no thermally accessible electronically excited states
  (3) Hindered rotations indicated by low frequency modes are not
      treated as such but are treated as vibrations and this may
      cause some error
  (4) All equations used are the standard statistical mechanics
      equations for an ideal gas
  (5) All vibrations are strictly harmonic

freq.     352.14  E(vib)   ...       0.23 
freq.     352.17  E(vib)   ...       0.23 
freq.    1014.90  E(vib)   ...       0.02 
freq.    1016.12  E(vib)   ...       0.02 
freq.    1016.12  E(vib)   ...       0.02 
freq.    1365.40  E(vib)   ...       0.01 
freq.    1365.41  E(vib)   ...       0.01 
freq.    2156.33  E(vib)   ...       0.00 
freq.    3103.24  E(vib)   ...       0.00 
freq.    3250.19  E(vib)   ...       0.00 
freq.    3250.19  E(vib)   ...       0.00 

------------
INNER ENERGY
------------

The inner energy is: U= E(el) + E(ZPE) + E(vib) + E(rot) + E(trans)
    E(el)   - is the total energy from the electronic structure calculation
              = E(kin-el) + E(nuc-el) + E(el-el) + E(nuc-nuc)
    E(ZPE)  - the the zero temperature vibrational energy from the frequency calculation
    E(vib)  - the the finite temperature correction to E(ZPE) due to population
              of excited vibrational states
    E(rot)  - is the rotational thermal energy
    E(trans)- is the translational thermal energy

Summary of contributions to the inner energy U:
Electronic energy                ...    -41.01986561 Eh
Zero point energy                ...      0.04155879 Eh      26.08 kcal/mol
Thermal vibrational correction   ...      0.00083932 Eh       0.53 kcal/mol
Thermal rotational correction    ...      0.00141627 Eh       0.89 kcal/mol
Thermal translational correction ...      0.00141627 Eh       0.89 kcal/mol
-----------------------------------------------------------------------
Total thermal energy                    -40.97463495 Eh


Summary of corrections to the electronic energy:
(perhaps to be used in another calculation)
Total thermal correction                  0.00367187 Eh       2.30 kcal/mol
Non-thermal (ZPE) correction              0.04155879 Eh      26.08 kcal/mol
-----------------------------------------------------------------------
Total correction                          0.04523066 Eh      28.38 kcal/mol


--------
ENTHALPY
--------

The enthalpy is H = U + kB*T
                kB is Boltzmann's constant
Total free energy                 ...    -40.97463495 Eh 
Thermal Enthalpy correction       ...      0.00094421 Eh       0.59 kcal/mol
-----------------------------------------------------------------------
Total Enthalpy                    ...    -40.97369074 Eh


Vibrational entropy computed according to the QRRHO of S. Grimme
Chem.Eur.J. 2012 18 9955


-------
ENTROPY
-------

The entropy contributions are T*S = T*(S(el)+S(vib)+S(rot)+S(trans)
     S(el)   - electronic entropy
     S(vib)  - vibrational entropy
     S(rot)  - rotational entropy
     S(trans)- translational entropy
The entropies will be listed as mutliplied by the temperature to get
units of energy

Electronic entropy                ...      0.00065446 Eh      0.41 kcal/mol
Vibrational entropy               ...      0.00124710 Eh      0.78 kcal/mol
Rotational entropy                ...      0.00706699 Eh      4.43 kcal/mol
Translational entropy             ...      0.01636591 Eh     10.27 kcal/mol
-----------------------------------------------------------------------
Final entropy term                ...      0.02533446 Eh     15.90 kcal/mol


CAUTION: The rotational entropy is not quite correctly treated here
         because it includes a symmetry number that is not yet correctly
         implemented in ORCA!
For a nonlinear molecule the correct rotational entropy is:
    S(rot) = R*(ln(qrot/sn)+1.5)
    R    = 8.31441 J/mol/K = 1.987191683e-3 kcal/mol/K
    qrot = 1192.0044191
    sn is the rotational symmetry number. We have assumed 3 here
       if it is different for your molecule then you should correct
       the printed rotational entropy by manually evaluating the equation
       as given above

For convenience we print out the resulting values for sn=1 - 12:
 sn= 1  qrot/sn=    1192.0044 T*S(rot)=     5.09 kcal/mol T*S(tot)=    16.55 kcal/mol
 sn= 2  qrot/sn=     596.0022 T*S(rot)=     4.67 kcal/mol T*S(tot)=    16.14 kcal/mol
 sn= 3  qrot/sn=     397.3348 T*S(rot)=     4.43 kcal/mol T*S(tot)=    15.90 kcal/mol
 sn= 4  qrot/sn=     298.0011 T*S(rot)=     4.26 kcal/mol T*S(tot)=    15.73 kcal/mol
 sn= 5  qrot/sn=     238.4009 T*S(rot)=     4.13 kcal/mol T*S(tot)=    15.59 kcal/mol
 sn= 6  qrot/sn=     198.6674 T*S(rot)=     4.02 kcal/mol T*S(tot)=    15.49 kcal/mol
 sn= 7  qrot/sn=     170.2863 T*S(rot)=     3.93 kcal/mol T*S(tot)=    15.40 kcal/mol
 sn= 8  qrot/sn=     149.0006 T*S(rot)=     3.85 kcal/mol T*S(tot)=    15.32 kcal/mol
 sn= 9  qrot/sn=     132.4449 T*S(rot)=     3.78 kcal/mol T*S(tot)=    15.25 kcal/mol
 sn=10  qrot/sn=     119.2004 T*S(rot)=     3.72 kcal/mol T*S(tot)=    15.18 kcal/mol
 sn=11  qrot/sn=     108.3640 T*S(rot)=     3.66 kcal/mol T*S(tot)=    15.13 kcal/mol
 sn=12  qrot/sn=      99.3337 T*S(rot)=     3.61 kcal/mol T*S(tot)=    15.08 kcal/mol


-------------------
GIBBS FREE ENTHALPY
-------------------

The Gibbs free enthalpy is G = H - T*S

Total enthalpy                    ...    -40.97369074 Eh 
Total entropy correction          ...     -0.02533446 Eh    -15.90 kcal/mol
-----------------------------------------------------------------------
Final Gibbs free enthalpy         ...    -40.99902520 Eh

For completeness - the Gibbs free enthalpy minus the electronic energy
G-E(el)                           ...      0.02084041 Eh     13.08 kcal/mol


Timings for individual modules:

Sum of individual times         ...       58.399 sec (=   0.973 min)
GTO integral calculation        ...        0.182 sec (=   0.003 min)   0.3 %
SCF iterations                  ...        7.274 sec (=   0.121 min)  12.5 %
Analytical frequency calculation...       50.943 sec (=   0.849 min)  87.2 %
                             ****ORCA TERMINATED NORMALLY****
TOTAL RUN TIME: 0 days 0 hours 0 minutes 58 seconds 549 msec
