 Entering Gaussian System, Link 0=g09
 Initial command:
 /apps/gaussian/g09/l1.exe /scratch_l/henon/nh2_14767/Gau-14783.inp -scrdir=/scratch_l/henon/nh2_14767/
 Entering Link 1 = /apps/gaussian/g09/l1.exe PID=     14784.
  
 Copyright (c) 1988,1990,1992,1993,1995,1998,2003,2009, Gaussian, Inc.
                  All Rights Reserved.
  
 This is part of the Gaussian(R) 09 program.  It is based on
 the Gaussian(R) 03 system (copyright 2003, Gaussian, Inc.),
 the Gaussian(R) 98 system (copyright 1998, Gaussian, Inc.),
 the Gaussian(R) 94 system (copyright 1995, Gaussian, Inc.),
 the Gaussian 92(TM) system (copyright 1992, Gaussian, Inc.),
 the Gaussian 90(TM) system (copyright 1990, Gaussian, Inc.),
 the Gaussian 88(TM) system (copyright 1988, Gaussian, Inc.),
 the Gaussian 86(TM) system (copyright 1986, Carnegie Mellon
 University), and the Gaussian 82(TM) system (copyright 1983,
 Carnegie Mellon University). Gaussian is a federally registered
 trademark of Gaussian, Inc.
  
 This software contains proprietary and confidential information,
 including trade secrets, belonging to Gaussian, Inc.
  
 This software is provided under written license and may be
 used, copied, transmitted, or stored only in accord with that
 written license.
  
 The following legend is applicable only to US Government
 contracts under FAR:
  
                    RESTRICTED RIGHTS LEGEND
  
 Use, reproduction and disclosure by the US Government is
 subject to restrictions as set forth in subparagraphs (a)
 and (c) of the Commercial Computer Software - Restricted
 Rights clause in FAR 52.227-19.
  
 Gaussian, Inc.
 340 Quinnipiac St., Bldg. 40, Wallingford CT 06492
  
  
 ---------------------------------------------------------------
 Warning -- This program may not be used in any manner that
 competes with the business of Gaussian, Inc. or will provide
 assistance to any competitor of Gaussian, Inc.  The licensee
 of this program is prohibited from giving any competitor of
 Gaussian, Inc. access to this program.  By using this program,
 the user acknowledges that Gaussian, Inc. is engaged in the
 business of creating and licensing software in the field of
 computational chemistry and represents and warrants to the
 licensee that it is not a competitor of Gaussian, Inc. and that
 it will not use this program in any manner prohibited above.
 ---------------------------------------------------------------
  

 Cite this work as:
 Gaussian 09, Revision A.02,
 M. J. Frisch, G. W. Trucks, H. B. Schlegel, G. E. Scuseria, 
 M. A. Robb, J. R. Cheeseman, G. Scalmani, V. Barone, B. Mennucci, 
 G. A. Petersson, H. Nakatsuji, M. Caricato, X. Li, H. P. Hratchian, 
 A. F. Izmaylov, J. Bloino, G. Zheng, J. L. Sonnenberg, M. Hada, 
 M. Ehara, K. Toyota, R. Fukuda, J. Hasegawa, M. Ishida, T. Nakajima, 
 Y. Honda, O. Kitao, H. Nakai, T. Vreven, J. A. Montgomery, Jr., 
 J. E. Peralta, F. Ogliaro, M. Bearpark, J. J. Heyd, E. Brothers, 
 K. N. Kudin, V. N. Staroverov, R. Kobayashi, J. Normand, 
 K. Raghavachari, A. Rendell, J. C. Burant, S. S. Iyengar, J. Tomasi, 
 M. Cossi, N. Rega, J. M. Millam, M. Klene, J. E. Knox, J. B. Cross, 
 V. Bakken, C. Adamo, J. Jaramillo, R. Gomperts, R. E. Stratmann, 
 O. Yazyev, A. J. Austin, R. Cammi, C. Pomelli, J. W. Ochterski, 
 R. L. Martin, K. Morokuma, V. G. Zakrzewski, G. A. Voth, 
 P. Salvador, J. J. Dannenberg, S. Dapprich, A. D. Daniels, 
 O. Farkas, J. B. Foresman, J. V. Ortiz, J. Cioslowski, 
 and D. J. Fox, Gaussian, Inc., Wallingford CT, 2009.
 
 ******************************************
 Gaussian 09:  AM64L-G09RevA.02 11-Jun-2009
                25-Apr-2014 
 ******************************************
 %NPROC=4
 Will use up to    4 processors via shared memory.
 %MEM=500MB
 ------------------------------------------------------
 #P M06 6-311G** FREQ OPT # GFINPUT IOP(6/7=3) POP=FULL
 ------------------------------------------------------
 1/14=-1,18=20,19=15,26=3,38=1/1,3;
 2/9=110,12=2,17=6,18=5,40=1/2;
 3/5=4,6=6,7=101,11=2,16=1,24=10,25=1,30=1,71=1,74=-54/1,2,3;
 4//1;
 5/5=2,38=5/2;
 6/7=3,28=1/1;
 7//1,2,3,16;
 1/14=-1,18=20,19=15/3(2);
 2/9=110/2;
 99//99;
 2/9=110/2;
 3/5=4,6=6,7=101,11=2,16=1,25=1,30=1,71=1,74=-54/1,2,3;
 4/5=5,16=3/1;
 5/5=2,38=5/2;
 7//1,2,3,16;
 1/14=-1,18=20,19=15/3(-5);
 2/9=110/2;
 6/7=3,19=2,28=1/1;
 99/9=1/99;
 Leave Link    1 at Fri Apr 25 16:34:11 2014, MaxMem=   65536000 cpu:       0.1
 (Enter /apps/gaussian/g09/l101.exe)
 ---------
 product 2
 ---------
 Symbolic Z-matrix:
 Charge =  0 Multiplicity = 2
 N
 H                    1    NH
 H                    1    NH       2    HNH
       Variables:
  NH                    1.                       
  HNH                 109.                       
 
 NAtoms=      3 NQM=      3 NQMF=      0 NMic=      0 NMicF=      0 NTot=      3.
                    Isotopes and Nuclear Properties:
 (Nuclear quadrupole moments (NQMom) in fm**2, nuclear magnetic moments (NMagM)
  in nuclear magnetons)

  Atom         1           2           3
 IAtWgt=          14           1           1
 AtmWgt=  14.0030740   1.0078250   1.0078250
 NucSpn=           2           1           1
 AtZEff=   0.0000000   0.0000000   0.0000000
 NQMom=    2.0440000   0.0000000   0.0000000
 NMagM=    0.4037610   2.7928460   2.7928460
 Leave Link  101 at Fri Apr 25 16:34:11 2014, MaxMem=   65536000 cpu:       0.3
 (Enter /apps/gaussian/g09/l103.exe)

 GradGradGradGradGradGradGradGradGradGradGradGradGradGradGradGradGradGrad
 Berny optimization.
 Initialization pass.
                           ----------------------------
                           !    Initial Parameters    !
                           ! (Angstroms and Degrees)  !
 --------------------------                            --------------------------
 ! Name  Definition              Value          Derivative Info.                !
 --------------------------------------------------------------------------------
 ! R1    R(1,2)                  1.0            estimate D2E/DX2                !
 ! R2    R(1,3)                  1.0            estimate D2E/DX2                !
 ! A1    A(2,1,3)              109.0            estimate D2E/DX2                !
 --------------------------------------------------------------------------------
 Trust Radius=3.00D-01 FncErr=1.00D-07 GrdErr=1.00D-06
 Number of steps in this run=  20 maximum allowed number of steps= 100.
 GradGradGradGradGradGradGradGradGradGradGradGradGradGradGradGradGradGrad

 Leave Link  103 at Fri Apr 25 16:34:11 2014, MaxMem=   65536000 cpu:       0.0
 (Enter /apps/gaussian/g09/l202.exe)
                          Input orientation:                          
 ---------------------------------------------------------------------
 Center     Atomic      Atomic             Coordinates (Angstroms)
 Number     Number       Type             X           Y           Z
 ---------------------------------------------------------------------
      1          7           0        0.000000    0.000000    0.000000
      2          1           0        0.000000    0.000000    1.000000
      3          1           0        0.945519    0.000000   -0.325568
 ---------------------------------------------------------------------
                    Distance matrix (angstroms):
                    1          2          3
     1  N    0.000000
     2  H    1.000000   0.000000
     3  H    1.000000   1.628231   0.000000
 Stoichiometry    H2N(2)
 Framework group  C2V[C2(N),SGV(H2)]
 Deg. of freedom     2
 Full point group                 C2V     NOp   4
 Largest Abelian subgroup         C2V     NOp   4
 Largest concise Abelian subgroup C2      NOp   2
                         Standard orientation:                         
 ---------------------------------------------------------------------
 Center     Atomic      Atomic             Coordinates (Angstroms)
 Number     Number       Type             X           Y           Z
 ---------------------------------------------------------------------
      1          7           0        0.000000    0.000000    0.129045
      2          1           0       -0.000000    0.814116   -0.451658
      3          1           0       -0.000000   -0.814116   -0.451658
 ---------------------------------------------------------------------
 Rotational constants (GHZ):    850.5473990    378.2944684    261.8379017
 Leave Link  202 at Fri Apr 25 16:34:11 2014, MaxMem=   65536000 cpu:       0.0
 (Enter /apps/gaussian/g09/l301.exe)
 Standard basis: 6-311G(d,p) (5D, 7F)
 Ernie: Thresh=  0.10000D-02 Tol=  0.10000D-05 Strict=F.
 AO basis set in the form of general basis input (Overlap normalization):
      1 0
 S   6 1.00       0.000000000000
      0.6293480000D+04  0.1969788147D-02
      0.9490440000D+03  0.1496128592D-01
      0.2187760000D+03  0.7350053084D-01
      0.6369160000D+02  0.2489367658D+00
      0.1882820000D+02  0.6024594331D+00
      0.2720230000D+01  0.2562017589D+00
 SP   3 1.00       0.000000000000
      0.3063310000D+02  0.1119060795D+00  0.3831191864D-01
      0.7026140000D+01  0.9216666549D+00  0.2374031155D+00
      0.2112050000D+01 -0.2569191826D-02  0.8175923978D+00
 SP   1 1.00       0.000000000000
      0.6840090000D+00  0.1000000000D+01  0.1000000000D+01
 SP   1 1.00       0.000000000000
      0.2008780000D+00  0.1000000000D+01  0.1000000000D+01
 D   1 1.00       0.000000000000
      0.9130000000D+00  0.1000000000D+01
 ****
      2 0
 S   3 1.00       0.000000000000
      0.3386500000D+02  0.2549381454D-01
      0.5094790000D+01  0.1903731086D+00
      0.1158790000D+01  0.8521614860D+00
 S   1 1.00       0.000000000000
      0.3258400000D+00  0.1000000000D+01
 S   1 1.00       0.000000000000
      0.1027410000D+00  0.1000000000D+01
 P   1 1.00       0.000000000000
      0.7500000000D+00  0.1000000000D+01
 ****
      3 0
 S   3 1.00       0.000000000000
      0.3386500000D+02  0.2549381454D-01
      0.5094790000D+01  0.1903731086D+00
      0.1158790000D+01  0.8521614860D+00
 S   1 1.00       0.000000000000
      0.3258400000D+00  0.1000000000D+01
 S   1 1.00       0.000000000000
      0.1027410000D+00  0.1000000000D+01
 P   1 1.00       0.000000000000
      0.7500000000D+00  0.1000000000D+01
 ****

 There are    14 symmetry adapted basis functions of A1  symmetry.
 There are     2 symmetry adapted basis functions of A2  symmetry.
 There are     5 symmetry adapted basis functions of B1  symmetry.
 There are     9 symmetry adapted basis functions of B2  symmetry.
 Integral buffers will be    131072 words long.
 Raffenetti 2 integral format.
 Two-electron integral symmetry is turned on.
    30 basis functions,    48 primitive gaussians,    31 cartesian basis functions
     5 alpha electrons        4 beta electrons
       nuclear repulsion energy         7.7334822233 Hartrees.
 IExCor= 4235 DFT=T Ex+Corr=M06 ExCW=0 ScaHFX=  0.270000
 ScaDFX=  1.000000  1.000000  1.000000  1.000000 ScalE2=  1.000000  1.000000
 IRadAn=      0 IRanWt=     -1 IRanGd=            0 ICorTp=0
 NAtoms=    3 NActive=    3 NUniq=    2 SFac= 1.69D+00 NAtFMM=   80 NAOKFM=F Big=F
 Leave Link  301 at Fri Apr 25 16:34:11 2014, MaxMem=   65536000 cpu:       0.1
 (Enter /apps/gaussian/g09/l302.exe)
 NPDir=0 NMtPBC=     1 NCelOv=     1 NCel=       1 NClECP=     1 NCelD=      1
         NCelK=      1 NCelE2=     1 NClLst=     1 CellRange=     0.0.
 One-electron integrals computed using PRISM.
 One-electron integral symmetry used in STVInt
 NBasis=    30 RedAO= T  NBF=    14     2     5     9
 NBsUse=    30 1.00D-06 NBFU=    14     2     5     9
 Precomputing XC quadrature grid using
 IXCGrd= 2 IRadAn=           0 IRanWt=          -1 IRanGd=           0 AccXCQ= 1.00D-10.
 NRdTot=     186 NPtTot=       23506 NUsed=       24860 NTot=       24892
 NSgBfM=    31    31    31    31    31 NAtAll=     3     3.
 Leave Link  302 at Fri Apr 25 16:34:11 2014, MaxMem=   65536000 cpu:       0.5
 (Enter /apps/gaussian/g09/l303.exe)
 DipDrv:  MaxL=1.
 Leave Link  303 at Fri Apr 25 16:34:11 2014, MaxMem=   65536000 cpu:       0.5
 (Enter /apps/gaussian/g09/l401.exe)
 Harris functional with IExCor= 1009 diagonalized for initial guess.
 ExpMin= 1.03D-01 ExpMax= 6.29D+03 ExpMxC= 9.49D+02 IAcc=1 IRadAn=         1 AccDes= 0.00D+00
 HarFok:  IExCor= 1009 AccDes= 0.00D+00 IRadAn=         1 IDoV= 1
 ScaDFX=  1.000000  1.000000  1.000000  1.000000
 FoFCou: FMM=F IPFlag=           0 FMFlag=      100000 FMFlg1=           0
         NFxFlg=           0 DoJE=T BraDBF=F KetDBF=T FulRan=T
         Omega=  0.000000  0.000000  1.000000  0.000000  0.000000 ICntrl=     500 IOpCl=  0
         NMat0=    1 NMatS0=    1 NMatT0=    0 NMatD0=    1 NMtDS0=    0 NMtDT0=    0
         I1Cent=           4 NGrid=           0.
 Petite list used in FoFCou.
 Harris En= -55.8236279678224    
 Initial guess orbital symmetries:
 Alpha Orbitals:
       Occupied  (A1) (A1) (B2) (A1) (B1)
       Virtual   (A1) (B2) (B2) (A1) (A1) (B1) (B2) (A1) (A2) (A1)
                 (B1) (B2) (B2) (A1) (A1) (B1) (A2) (B2) (A1) (A1)
                 (B2) (B1) (A1) (B2) (A1)
 Beta  Orbitals:
       Occupied  (A1) (A1) (B2) (A1)
       Virtual   (B1) (A1) (B2) (B2) (A1) (A1) (B1) (B2) (A1) (A2)
                 (A1) (B1) (B2) (B2) (A1) (A1) (B1) (A2) (B2) (A1)
                 (A1) (B2) (B1) (A1) (B2) (A1)
 The electronic state of the initial guess is 2-B1.
 Initial guess <Sx>= 0.0000 <Sy>= 0.0000 <Sz>= 0.5000 <S**2>= 0.7500 S= 0.5000
 Leave Link  401 at Fri Apr 25 16:34:12 2014, MaxMem=   65536000 cpu:       0.6
 (Enter /apps/gaussian/g09/l502.exe)
 UHF open shell SCF:
 Requested convergence on RMS density matrix=1.00D-08 within 128 cycles.
 Requested convergence on MAX density matrix=1.00D-06.
 Requested convergence on             energy=1.00D-06.
 No special actions if energy rises.
 Using DIIS extrapolation, IDIIS=  1040.
 Integral symmetry usage will be decided dynamically.
        24820 words used for storage of precomputed grid.
 Keep R1 and R2 ints in memory in canonical form, NReq=1152322.
 IEnd=       46339 IEndB=       46339 NGot=    65536000 MDV=    65260754
 LenX=    65260754 LenY=    65259352
 Symmetry not used in FoFDir.
 MinBra= 0 MaxBra= 2 Meth= 1.
 IRaf=       0 NMat=   1 IRICut=       1 DoRegI=T DoRafI=F ISym2E= 0 JSym2E=0.
 Integral accuracy reduced to 1.0D-05 until final iterations.

 Cycle   1  Pass 0  IDiag  1:
 E= -55.8214512705992    
 DIIS: error= 3.69D-02 at cycle   1 NSaved=   1.
 NSaved= 1 IEnMin= 1 EnMin= -55.8214512705992     IErMin= 1 ErrMin= 3.69D-02
 ErrMax= 3.69D-02 EMaxC= 1.00D-01 BMatC= 1.22D-01 BMatP= 1.22D-01
 IDIUse=3 WtCom= 6.31D-01 WtEn= 3.69D-01
 Coeff-Com:  0.100D+01
 Coeff-En:   0.100D+01
 Coeff:      0.100D+01
 Gap=     0.288 Goal=   None    Shift=    0.000
 Gap=     0.221 Goal=   None    Shift=    0.000
 GapD=    0.221 DampG=1.000 DampE=0.500 DampFc=0.5000 IDamp=-1.
 Damping current iteration by 5.00D-01
 RMSDP=8.56D-03 MaxDP=1.28D-01              OVMax= 1.25D-01

 Cycle   2  Pass 0  IDiag  1:
 E= -55.8350826131353     Delta-E=       -0.013631342536 Rises=F Damp=T
 DIIS: error= 9.47D-03 at cycle   2 NSaved=   2.
 NSaved= 2 IEnMin= 2 EnMin= -55.8350826131353     IErMin= 2 ErrMin= 9.47D-03
 ErrMax= 9.47D-03 EMaxC= 1.00D-01 BMatC= 5.97D-03 BMatP= 1.22D-01
 IDIUse=3 WtCom= 9.05D-01 WtEn= 9.47D-02
 Coeff-Com:  0.492D-01 0.951D+00
 Coeff-En:   0.264D-01 0.974D+00
 Coeff:      0.470D-01 0.953D+00
 Gap=     0.354 Goal=   None    Shift=    0.000
 Gap=     0.207 Goal=   None    Shift=    0.000
 RMSDP=9.79D-04 MaxDP=1.36D-02 DE=-1.36D-02 OVMax= 5.63D-02

 Cycle   3  Pass 0  IDiag  1:
 E= -55.8503796430226     Delta-E=       -0.015297029887 Rises=F Damp=F
 DIIS: error= 1.68D-03 at cycle   3 NSaved=   3.
 NSaved= 3 IEnMin= 3 EnMin= -55.8503796430226     IErMin= 3 ErrMin= 1.68D-03
 ErrMax= 1.68D-03 EMaxC= 1.00D-01 BMatC= 1.76D-04 BMatP= 5.97D-03
 IDIUse=3 WtCom= 9.83D-01 WtEn= 1.68D-02
 Coeff-Com: -0.412D-02 0.931D-02 0.995D+00
 Coeff-En:   0.000D+00 0.000D+00 0.100D+01
 Coeff:     -0.405D-02 0.915D-02 0.995D+00
 Gap=     0.357 Goal=   None    Shift=    0.000
 Gap=     0.211 Goal=   None    Shift=    0.000
 RMSDP=2.30D-04 MaxDP=3.29D-03 DE=-1.53D-02 OVMax= 4.14D-03

 Cycle   4  Pass 0  IDiag  1:
 E= -55.8504505671795     Delta-E=       -0.000070924157 Rises=F Damp=F
 DIIS: error= 5.16D-04 at cycle   4 NSaved=   4.
 NSaved= 4 IEnMin= 4 EnMin= -55.8504505671795     IErMin= 4 ErrMin= 5.16D-04
 ErrMax= 5.16D-04 EMaxC= 1.00D-01 BMatC= 1.75D-05 BMatP= 1.76D-04
 IDIUse=3 WtCom= 9.95D-01 WtEn= 5.16D-03
 Coeff-Com: -0.213D-02-0.292D-01-0.960D-01 0.113D+01
 Coeff-En:   0.000D+00 0.000D+00 0.000D+00 0.100D+01
 Coeff:     -0.212D-02-0.291D-01-0.955D-01 0.113D+01
 Gap=     0.358 Goal=   None    Shift=    0.000
 Gap=     0.211 Goal=   None    Shift=    0.000
 RMSDP=9.63D-05 MaxDP=1.19D-03 DE=-7.09D-05 OVMax= 1.62D-03

 Cycle   5  Pass 0  IDiag  1:
 E= -55.8504594675591     Delta-E=       -0.000008900380 Rises=F Damp=F
 DIIS: error= 1.75D-04 at cycle   5 NSaved=   5.
 NSaved= 5 IEnMin= 5 EnMin= -55.8504594675591     IErMin= 5 ErrMin= 1.75D-04
 ErrMax= 1.75D-04 EMaxC= 1.00D-01 BMatC= 1.32D-06 BMatP= 1.75D-05
 IDIUse=3 WtCom= 9.98D-01 WtEn= 1.75D-03
 Coeff-Com: -0.680D-03 0.484D-03-0.728D-01 0.773D-01 0.996D+00
 Coeff-En:   0.000D+00 0.000D+00 0.000D+00 0.000D+00 0.100D+01
 Coeff:     -0.679D-03 0.483D-03-0.727D-01 0.772D-01 0.996D+00
 Gap=     0.358 Goal=   None    Shift=    0.000
 Gap=     0.211 Goal=   None    Shift=    0.000
 RMSDP=2.69D-05 MaxDP=3.07D-04 DE=-8.90D-06 OVMax= 4.24D-04

 Cycle   6  Pass 0  IDiag  1:
 E= -55.8504600565431     Delta-E=       -0.000000588984 Rises=F Damp=F
 DIIS: error= 2.14D-05 at cycle   6 NSaved=   6.
 NSaved= 6 IEnMin= 6 EnMin= -55.8504600565431     IErMin= 6 ErrMin= 2.14D-05
 ErrMax= 2.14D-05 EMaxC= 1.00D-01 BMatC= 3.27D-08 BMatP= 1.32D-06
 IDIUse=1 WtCom= 1.00D+00 WtEn= 0.00D+00
 Coeff-Com:  0.206D-03 0.101D-02 0.130D-01-0.574D-01-0.144D+00 0.119D+01
 Coeff:      0.206D-03 0.101D-02 0.130D-01-0.574D-01-0.144D+00 0.119D+01
 Gap=     0.358 Goal=   None    Shift=    0.000
 Gap=     0.211 Goal=   None    Shift=    0.000
 RMSDP=6.96D-06 MaxDP=7.75D-05 DE=-5.89D-07 OVMax= 1.08D-04

 Initial convergence to 1.0D-05 achieved.  Increase integral accuracy.
 Cycle   7  Pass 1  IDiag  1:
 E= -55.8502791376299     Delta-E=        0.000180918913 Rises=F Damp=F
 DIIS: error= 5.99D-04 at cycle   1 NSaved=   1.
 NSaved= 1 IEnMin= 1 EnMin= -55.8502791376299     IErMin= 1 ErrMin= 5.99D-04
 ErrMax= 5.99D-04 EMaxC= 1.00D-01 BMatC= 2.24D-05 BMatP= 2.24D-05
 IDIUse=3 WtCom= 9.94D-01 WtEn= 5.99D-03
 Coeff-Com:  0.100D+01
 Coeff-En:   0.100D+01
 Coeff:      0.100D+01
 Gap=     0.358 Goal=   None    Shift=    0.000
 Gap=     0.210 Goal=   None    Shift=    0.000
 RMSDP=6.96D-06 MaxDP=7.75D-05 DE= 1.81D-04 OVMax= 1.16D-03

 Cycle   8  Pass 1  IDiag  1:
 E= -55.8502835346327     Delta-E=       -0.000004397003 Rises=F Damp=F
 DIIS: error= 1.15D-04 at cycle   2 NSaved=   2.
 NSaved= 2 IEnMin= 2 EnMin= -55.8502835346327     IErMin= 2 ErrMin= 1.15D-04
 ErrMax= 1.15D-04 EMaxC= 1.00D-01 BMatC= 9.50D-07 BMatP= 2.24D-05
 IDIUse=3 WtCom= 9.99D-01 WtEn= 1.15D-03
 Coeff-Com:  0.671D-01 0.933D+00
 Coeff-En:   0.000D+00 0.100D+01
 Coeff:      0.670D-01 0.933D+00
 Gap=     0.358 Goal=   None    Shift=    0.000
 Gap=     0.210 Goal=   None    Shift=    0.000
 RMSDP=2.05D-05 MaxDP=2.87D-04 DE=-4.40D-06 OVMax= 3.56D-04

 Cycle   9  Pass 1  IDiag  1:
 E= -55.8502836080675     Delta-E=       -0.000000073435 Rises=F Damp=F
 DIIS: error= 1.08D-04 at cycle   3 NSaved=   3.
 NSaved= 3 IEnMin= 3 EnMin= -55.8502836080675     IErMin= 3 ErrMin= 1.08D-04
 ErrMax= 1.08D-04 EMaxC= 1.00D-01 BMatC= 8.23D-07 BMatP= 9.50D-07
 IDIUse=3 WtCom= 9.99D-01 WtEn= 1.08D-03
 Coeff-Com:  0.474D-02 0.480D+00 0.515D+00
 Coeff-En:   0.000D+00 0.395D+00 0.605D+00
 Coeff:      0.474D-02 0.480D+00 0.515D+00
 Gap=     0.358 Goal=   None    Shift=    0.000
 Gap=     0.210 Goal=   None    Shift=    0.000
 RMSDP=9.85D-06 MaxDP=1.51D-04 DE=-7.34D-08 OVMax= 1.56D-04

 Cycle  10  Pass 1  IDiag  1:
 E= -55.8502837786053     Delta-E=       -0.000000170538 Rises=F Damp=F
 DIIS: error= 8.93D-06 at cycle   4 NSaved=   4.
 NSaved= 4 IEnMin= 4 EnMin= -55.8502837786053     IErMin= 4 ErrMin= 8.93D-06
 ErrMax= 8.93D-06 EMaxC= 1.00D-01 BMatC= 5.58D-09 BMatP= 8.23D-07
 IDIUse=1 WtCom= 1.00D+00 WtEn= 0.00D+00
 Coeff-Com: -0.505D-02-0.989D-01-0.618D-01 0.117D+01
 Coeff:     -0.505D-02-0.989D-01-0.618D-01 0.117D+01
 Gap=     0.358 Goal=   None    Shift=    0.000
 Gap=     0.210 Goal=   None    Shift=    0.000
 RMSDP=2.34D-06 MaxDP=2.72D-05 DE=-1.71D-07 OVMax= 4.07D-05

 Cycle  11  Pass 1  IDiag  1:
 E= -55.8502837821491     Delta-E=       -0.000000003544 Rises=F Damp=F
 DIIS: error= 3.03D-06 at cycle   5 NSaved=   5.
 NSaved= 5 IEnMin= 5 EnMin= -55.8502837821491     IErMin= 5 ErrMin= 3.03D-06
 ErrMax= 3.03D-06 EMaxC= 1.00D-01 BMatC= 3.55D-10 BMatP= 5.58D-09
 IDIUse=1 WtCom= 1.00D+00 WtEn= 0.00D+00
 Coeff-Com:  0.441D-05-0.188D-01-0.153D-01-0.121D+00 0.116D+01
 Coeff:      0.441D-05-0.188D-01-0.153D-01-0.121D+00 0.116D+01
 Gap=     0.358 Goal=   None    Shift=    0.000
 Gap=     0.210 Goal=   None    Shift=    0.000
 RMSDP=6.85D-07 MaxDP=8.51D-06 DE=-3.54D-09 OVMax= 1.04D-05

 Cycle  12  Pass 1  IDiag  1:
 E= -55.8502837823752     Delta-E=       -0.000000000226 Rises=F Damp=F
 DIIS: error= 4.62D-07 at cycle   6 NSaved=   6.
 NSaved= 6 IEnMin= 6 EnMin= -55.8502837823752     IErMin= 6 ErrMin= 4.62D-07
 ErrMax= 4.62D-07 EMaxC= 1.00D-01 BMatC= 1.20D-11 BMatP= 3.55D-10
 IDIUse=1 WtCom= 1.00D+00 WtEn= 0.00D+00
 Coeff-Com:  0.267D-03 0.252D-02 0.961D-03-0.696D-01 0.148D+00 0.918D+00
 Coeff:      0.267D-03 0.252D-02 0.961D-03-0.696D-01 0.148D+00 0.918D+00
 Gap=     0.358 Goal=   None    Shift=    0.000
 Gap=     0.210 Goal=   None    Shift=    0.000
 RMSDP=7.52D-08 MaxDP=9.90D-07 DE=-2.26D-10 OVMax= 1.15D-06

 Cycle  13  Pass 1  IDiag  1:
 E= -55.8502837823792     Delta-E=       -0.000000000004 Rises=F Damp=F
 DIIS: error= 6.21D-08 at cycle   7 NSaved=   7.
 NSaved= 7 IEnMin= 7 EnMin= -55.8502837823792     IErMin= 7 ErrMin= 6.21D-08
 ErrMax= 6.21D-08 EMaxC= 1.00D-01 BMatC= 2.36D-13 BMatP= 1.20D-11
 IDIUse=1 WtCom= 1.00D+00 WtEn= 0.00D+00
 Coeff-Com: -0.833D-05 0.473D-03-0.365D-05 0.276D-02-0.229D-01-0.123D-01
 Coeff-Com:  0.103D+01
 Coeff:     -0.833D-05 0.473D-03-0.365D-05 0.276D-02-0.229D-01-0.123D-01
 Coeff:      0.103D+01
 Gap=     0.358 Goal=   None    Shift=    0.000
 Gap=     0.210 Goal=   None    Shift=    0.000
 RMSDP=6.80D-09 MaxDP=1.56D-07 DE=-3.95D-12 OVMax= 1.60D-07

 SCF Done:  E(UM06) =  -55.8502837824     A.U. after   13 cycles
             Convg  =    0.6797D-08             -V/T =  2.0004
 <Sx>= 0.0000 <Sy>= 0.0000 <Sz>= 0.5000 <S**2>= 0.7541 S= 0.5020
 <L.S>=  0.00000000000    
 KE= 5.582979094586D+01 PE=-1.464813469493D+02 EE= 2.706778999773D+01
 Annihilation of the first spin contaminant:
 S**2 before annihilation     0.7541,   after     0.7500
 Leave Link  502 at Fri Apr 25 16:34:12 2014, MaxMem=   65536000 cpu:       1.5
 (Enter /apps/gaussian/g09/l601.exe)
 Copying SCF densities to generalized density rwf, IOpCl= 1 IROHF=0.

 **********************************************************************

            Population analysis using the SCF density.

 **********************************************************************

 Orbital symmetries:
 Alpha Orbitals:
       Occupied  (A1) (A1) (B2) (A1) (B1)
       Virtual   (A1) (B2) (B2) (A1) (B1) (A1) (B2) (A1) (A2) (A1)
                 (B1) (B2) (B2) (A1) (A1) (B1) (B2) (A2) (A1) (A1)
                 (B2) (B1) (A1) (B2) (A1)
 Beta  Orbitals:
       Occupied  (A1) (A1) (B2) (A1)
       Virtual   (B1) (A1) (B2) (B2) (A1) (A1) (B1) (B2) (A1) (A2)
                 (A1) (B1) (B2) (B2) (A1) (A1) (B2) (B1) (A2) (A1)
                 (A1) (B2) (B1) (A1) (B2) (A1)
 The electronic state is 2-B1.
 Alpha  occ. eigenvalues --  -14.39527  -0.87593  -0.50332  -0.33200  -0.31635
 Alpha virt. eigenvalues --    0.04177   0.09543   0.36050   0.39080   0.57439
 Alpha virt. eigenvalues --    0.59749   0.69913   0.84020   1.18402   1.24193
 Alpha virt. eigenvalues --    1.38507   1.56276   1.81719   1.85295   2.22383
 Alpha virt. eigenvalues --    2.28148   2.32001   2.37747   2.60447   2.85537
 Alpha virt. eigenvalues --    3.02458   3.61093   4.01171   4.69240  35.45026
  Beta  occ. eigenvalues --  -14.37889  -0.80905  -0.48093  -0.29540
  Beta virt. eigenvalues --   -0.08510   0.04829   0.09837   0.35691   0.39624
  Beta virt. eigenvalues --    0.60668   0.64862   0.70039   0.84856   1.18756
  Beta virt. eigenvalues --    1.23556   1.38987   1.54487   1.81163   1.88472
  Beta virt. eigenvalues --    2.19279   2.27942   2.33975   2.44279   2.63953
  Beta virt. eigenvalues --    2.87030   2.97226   3.76857   3.98240   4.61714
  Beta virt. eigenvalues --   35.46019
     Alpha Molecular Orbital Coefficients:
                           1         2         3         4         5
                        (A1)--O   (A1)--O   (B2)--O   (A1)--O   (B1)--O
     Eigenvalues --   -14.39527  -0.87593  -0.50332  -0.33200  -0.31635
   1 1   N  1S          0.55736  -0.11550   0.00000  -0.04776   0.00000
   2        2S          0.46520  -0.18169   0.00000  -0.07689   0.00000
   3        2PX         0.00000   0.00000   0.00000   0.00000   0.29749
   4        2PY         0.00000   0.00000   0.23019   0.00000   0.00000
   5        2PZ        -0.00151  -0.05984   0.00000   0.25651   0.00000
   6        3S          0.01694   0.50945   0.00000   0.22342   0.00000
   7        3PX         0.00000   0.00000   0.00000   0.00000   0.43702
   8        3PY         0.00000   0.00000   0.33554   0.00000   0.00000
   9        3PZ        -0.00231  -0.09085   0.00000   0.36010   0.00000
  10        4S         -0.00312   0.36284   0.00000   0.36863   0.00000
  11        4PX         0.00000   0.00000   0.00000   0.00000   0.45779
  12        4PY         0.00000   0.00000   0.18600   0.00000   0.00000
  13        4PZ        -0.00046  -0.04352   0.00000   0.35230   0.00000
  14        5D 0       -0.00003  -0.00059   0.00000  -0.02780   0.00000
  15        5D+1        0.00000   0.00000   0.00000   0.00000  -0.02724
  16        5D-1        0.00000   0.00000  -0.03065   0.00000   0.00000
  17        5D+2       -0.00137  -0.00209   0.00000   0.00554   0.00000
  18        5D-2        0.00000   0.00000   0.00000   0.00000   0.00000
  19 2   H  1S         -0.00022   0.10466   0.15038  -0.07629   0.00000
  20        2S         -0.00314   0.09417   0.21182  -0.12376   0.00000
  21        3S          0.00138  -0.00099   0.07248  -0.04798   0.00000
  22        4PX         0.00000   0.00000   0.00000   0.00000   0.02684
  23        4PY         0.00223  -0.01788  -0.00765   0.01801   0.00000
  24        4PZ        -0.00153   0.00959   0.01571   0.01496   0.00000
  25 3   H  1S         -0.00022   0.10466  -0.15038  -0.07629   0.00000
  26        2S         -0.00314   0.09417  -0.21182  -0.12376   0.00000
  27        3S          0.00138  -0.00099  -0.07248  -0.04798   0.00000
  28        4PX         0.00000   0.00000   0.00000   0.00000   0.02684
  29        4PY        -0.00223   0.01788  -0.00765  -0.01801   0.00000
  30        4PZ        -0.00153   0.00959  -0.01571   0.01496   0.00000
                           6         7         8         9        10
                        (A1)--V   (B2)--V   (B2)--V   (A1)--V   (B1)--V
     Eigenvalues --     0.04177   0.09543   0.36050   0.39080   0.57439
   1 1   N  1S         -0.04261   0.00000   0.00000   0.03357   0.00000
   2        2S         -0.06612   0.00000   0.00000   0.05815   0.00000
   3        2PX         0.00000   0.00000   0.00000   0.00000  -0.24980
   4        2PY         0.00000  -0.15673  -0.11360   0.00000   0.00000
   5        2PZ        -0.09157   0.00000   0.00000   0.08123   0.00000
   6        3S          0.13324   0.00000   0.00000  -0.15044   0.00000
   7        3PX         0.00000   0.00000   0.00000   0.00000  -0.83573
   8        3PY         0.00000  -0.14548  -0.23524   0.00000   0.00000
   9        3PZ        -0.13454   0.00000   0.00000   0.19447   0.00000
  10        4S          1.14176   0.00000   0.00000  -1.29820   0.00000
  11        4PX         0.00000   0.00000   0.00000   0.00000   1.17140
  12        4PY         0.00000  -0.69841  -1.11765   0.00000   0.00000
  13        4PZ        -0.32274   0.00000   0.00000   0.95248   0.00000
  14        5D 0        0.00702   0.00000   0.00000  -0.01282   0.00000
  15        5D+1        0.00000   0.00000   0.00000   0.00000   0.01207
  16        5D-1        0.00000  -0.00151  -0.00697   0.00000   0.00000
  17        5D+2        0.00043   0.00000   0.00000  -0.02157   0.00000
  18        5D-2        0.00000   0.00000   0.00000   0.00000   0.00000
  19 2   H  1S         -0.03772   0.03042   0.09360   0.09228   0.00000
  20        2S         -0.02913  -0.05640   1.34240   1.59283   0.00000
  21        3S         -0.94019   1.57771  -0.61656  -0.47060   0.00000
  22        4PX         0.00000   0.00000   0.00000   0.00000  -0.02142
  23        4PY        -0.00590   0.01740  -0.03259  -0.00999   0.00000
  24        4PZ         0.00063  -0.01579  -0.01028   0.04486   0.00000
  25 3   H  1S         -0.03772  -0.03042  -0.09360   0.09228   0.00000
  26        2S         -0.02913   0.05640  -1.34240   1.59283   0.00000
  27        3S         -0.94019  -1.57771   0.61656  -0.47060   0.00000
  28        4PX         0.00000   0.00000   0.00000   0.00000  -0.02142
  29        4PY         0.00590   0.01740  -0.03259   0.00999   0.00000
  30        4PZ         0.00063   0.01579   0.01028   0.04486   0.00000
                          11        12        13        14        15
                        (A1)--V   (B2)--V   (A1)--V   (A2)--V   (A1)--V
     Eigenvalues --     0.59749   0.69913   0.84020   1.18402   1.24193
   1 1   N  1S          0.01121   0.00000   0.11430   0.00000   0.01606
   2        2S          0.01969   0.00000   0.21940   0.00000   0.03209
   3        2PX         0.00000   0.00000   0.00000   0.00000   0.00000
   4        2PY         0.00000  -0.26503   0.00000   0.00000   0.00000
   5        2PZ        -0.25173   0.00000   0.04456   0.00000  -0.04936
   6        3S         -0.02334   0.00000  -1.65555   0.00000  -0.31083
   7        3PX         0.00000   0.00000   0.00000   0.00000   0.00000
   8        3PY         0.00000  -0.78130   0.00000   0.00000   0.00000
   9        3PZ        -0.79215   0.00000  -0.17807   0.00000  -0.11965
  10        4S         -0.72938   0.00000   3.42951   0.00000   1.13395
  11        4PX         0.00000   0.00000   0.00000   0.00000   0.00000
  12        4PY         0.00000   1.87541   0.00000   0.00000   0.00000
  13        4PZ         1.43206   0.00000  -0.67380   0.00000  -0.79073
  14        5D 0        0.01109   0.00000   0.01370   0.00000  -0.29485
  15        5D+1        0.00000   0.00000   0.00000   0.00000   0.00000
  16        5D-1        0.00000  -0.04783   0.00000   0.00000   0.00000
  17        5D+2        0.02493   0.00000  -0.06407   0.00000  -0.06240
  18        5D-2        0.00000   0.00000   0.00000   0.27538   0.00000
  19 2   H  1S         -0.00806   0.02463   0.03034   0.00000   0.04569
  20        2S          0.27047  -0.14814  -0.71534   0.00000  -0.69518
  21        3S          0.28576  -1.08026  -0.64614   0.00000  -0.02904
  22        4PX         0.00000   0.00000   0.00000   0.60964   0.00000
  23        4PY        -0.08298   0.10244   0.21123   0.00000   0.39450
  24        4PZ         0.03215  -0.08397  -0.20484   0.00000   0.48975
  25 3   H  1S         -0.00806  -0.02463   0.03034   0.00000   0.04569
  26        2S          0.27047   0.14814  -0.71534   0.00000  -0.69518
  27        3S          0.28576   1.08026  -0.64614   0.00000  -0.02904
  28        4PX         0.00000   0.00000   0.00000  -0.60964   0.00000
  29        4PY         0.08298   0.10244  -0.21123   0.00000  -0.39450
  30        4PZ         0.03215   0.08397  -0.20484   0.00000   0.48975
                          16        17        18        19        20
                        (B1)--V   (B2)--V   (B2)--V   (A1)--V   (A1)--V
     Eigenvalues --     1.38507   1.56276   1.81719   1.85295   2.22383
   1 1   N  1S          0.00000   0.00000   0.00000  -0.03315   0.03680
   2        2S          0.00000   0.00000   0.00000  -0.06526   0.09967
   3        2PX        -0.07095   0.00000   0.00000   0.00000   0.00000
   4        2PY         0.00000  -0.00195   0.15976   0.00000   0.00000
   5        2PZ         0.00000   0.00000   0.00000  -0.12333  -0.10141
   6        3S          0.00000   0.00000   0.00000   0.41206  -0.90218
   7        3PX        -0.10487   0.00000   0.00000   0.00000   0.00000
   8        3PY         0.00000  -0.04328   0.27476   0.00000   0.00000
   9        3PZ         0.00000   0.00000   0.00000  -0.18325   0.61323
  10        4S          0.00000   0.00000   0.00000  -0.65164  -0.96004
  11        4PX        -0.38077   0.00000   0.00000   0.00000   0.00000
  12        4PY         0.00000   0.86953  -0.19023   0.00000   0.00000
  13        4PZ         0.00000   0.00000   0.00000   0.43924   0.33176
  14        5D 0        0.00000   0.00000   0.00000  -0.17641   0.35625
  15        5D+1       -0.34567   0.00000   0.00000   0.00000   0.00000
  16        5D-1        0.00000  -0.15008   0.48041   0.00000   0.00000
  17        5D+2        0.00000   0.00000   0.00000   0.58397  -0.04822
  18        5D-2        0.00000   0.00000   0.00000   0.00000   0.00000
  19 2   H  1S          0.00000   0.16537  -0.59294  -0.59820  -0.82272
  20        2S          0.00000  -0.68431   0.89396   1.07959   1.79282
  21        3S          0.00000   0.05957  -0.49982  -0.28282  -0.30171
  22        4PX         0.65687   0.00000   0.00000   0.00000   0.00000
  23        4PY         0.00000  -0.50210   0.10472   0.26463  -0.54206
  24        4PZ         0.00000  -0.56219  -0.41518  -0.14312   0.52414
  25 3   H  1S          0.00000  -0.16537   0.59294  -0.59820  -0.82272
  26        2S          0.00000   0.68431  -0.89396   1.07959   1.79282
  27        3S          0.00000  -0.05957   0.49982  -0.28282  -0.30171
  28        4PX         0.65687   0.00000   0.00000   0.00000   0.00000
  29        4PY         0.00000  -0.50210   0.10472  -0.26463   0.54206
  30        4PZ         0.00000   0.56219   0.41518  -0.14312   0.52414
                          21        22        23        24        25
                        (B1)--V   (B2)--V   (A2)--V   (A1)--V   (A1)--V
     Eigenvalues --     2.28148   2.32001   2.37747   2.60447   2.85537
   1 1   N  1S          0.00000   0.00000   0.00000  -0.02743  -0.05347
   2        2S          0.00000   0.00000   0.00000  -0.06414  -0.11004
   3        2PX        -0.06259   0.00000   0.00000   0.00000   0.00000
   4        2PY         0.00000   0.00588   0.00000   0.00000   0.00000
   5        2PZ         0.00000   0.00000   0.00000  -0.13913  -0.38368
   6        3S          0.00000   0.00000   0.00000   0.42102   0.65503
   7        3PX        -0.00971   0.00000   0.00000   0.00000   0.00000
   8        3PY         0.00000  -1.31518   0.00000   0.00000   0.00000
   9        3PZ         0.00000   0.00000   0.00000  -0.37437  -0.33066
  10        4S          0.00000   0.00000   0.00000   1.53108   1.85680
  11        4PX        -0.32741   0.00000   0.00000   0.00000   0.00000
  12        4PY         0.00000  -0.61482   0.00000   0.00000   0.00000
  13        4PZ         0.00000   0.00000   0.00000  -0.94341  -0.69270
  14        5D 0        0.00000   0.00000   0.00000   0.99918  -0.21712
  15        5D+1        1.00470   0.00000   0.00000   0.00000   0.00000
  16        5D-1        0.00000   0.39280   0.00000   0.00000   0.00000
  17        5D+2        0.00000   0.00000   0.00000  -0.05148  -1.13443
  18        5D-2        0.00000   0.00000   1.07409   0.00000   0.00000
  19 2   H  1S          0.00000  -0.69307   0.00000   0.18191  -0.35576
  20        2S          0.00000   2.11725   0.00000  -1.30477  -1.05514
  21        3S          0.00000  -0.42917   0.00000   0.00096  -0.18097
  22        4PX         0.53026   0.00000  -0.51114   0.00000   0.00000
  23        4PY         0.00000  -0.94219   0.00000   0.85105   0.68026
  24        4PZ         0.00000   0.75044   0.00000   0.13202  -0.69659
  25 3   H  1S          0.00000   0.69307   0.00000   0.18191  -0.35576
  26        2S          0.00000  -2.11725   0.00000  -1.30477  -1.05514
  27        3S          0.00000   0.42917   0.00000   0.00096  -0.18097
  28        4PX         0.53026   0.00000   0.51114   0.00000   0.00000
  29        4PY         0.00000  -0.94219   0.00000  -0.85105  -0.68026
  30        4PZ         0.00000  -0.75044   0.00000   0.13202  -0.69659
                          26        27        28        29        30
                        (B2)--V   (B1)--V   (A1)--V   (B2)--V   (A1)--V
     Eigenvalues --     3.02458   3.61093   4.01171   4.69240  35.45026
   1 1   N  1S          0.00000   0.00000   0.04221   0.00000  -2.14782
   2        2S          0.00000   0.00000   0.07862   0.00000   2.27873
   3        2PX         0.00000  -1.28508   0.00000   0.00000   0.00000
   4        2PY        -0.62138   0.00000   0.00000  -1.24523   0.00000
   5        2PZ         0.00000   0.00000  -1.25247   0.00000  -0.03396
   6        3S          0.00000   0.00000  -0.51488   0.00000  -0.42698
   7        3PX         0.00000   1.44746   0.00000   0.00000   0.00000
   8        3PY        -0.01846   0.00000   0.00000   2.62380   0.00000
   9        3PZ         0.00000   0.00000   1.94801   0.00000   0.16000
  10        4S          0.00000   0.00000  -1.05211   0.00000   0.03285
  11        4PX         0.00000  -0.50113   0.00000   0.00000   0.00000
  12        4PY        -0.93000   0.00000   0.00000  -0.17401   0.00000
  13        4PZ         0.00000   0.00000  -0.12719   0.00000   0.03001
  14        5D 0        0.00000   0.00000  -0.10918   0.00000  -0.00540
  15        5D+1        0.00000  -0.06646   0.00000   0.00000   0.00000
  16        5D-1        1.16439   0.00000   0.00000  -1.04382   0.00000
  17        5D+2        0.00000   0.00000   0.48353   0.00000   0.07332
  18        5D-2        0.00000   0.00000   0.00000   0.00000   0.00000
  19 2   H  1S          0.53196   0.00000   0.32461  -0.58138   0.01467
  20        2S          0.40757   0.00000   0.68026  -0.79703   0.17474
  21        3S          0.39397   0.00000   0.02064   0.21885  -0.05031
  22        4PX         0.00000  -0.11680   0.00000   0.00000   0.00000
  23        4PY        -0.56367   0.00000  -0.60081   0.76522  -0.12353
  24        4PZ         0.34060   0.00000   0.26800  -0.62014   0.07912
  25 3   H  1S         -0.53196   0.00000   0.32461   0.58138   0.01467
  26        2S         -0.40757   0.00000   0.68026   0.79703   0.17474
  27        3S         -0.39397   0.00000   0.02064  -0.21885  -0.05031
  28        4PX         0.00000  -0.11680   0.00000   0.00000   0.00000
  29        4PY        -0.56367   0.00000   0.60081   0.76522   0.12353
  30        4PZ        -0.34060   0.00000   0.26800   0.62014   0.07912
     Beta Molecular Orbital Coefficients:
                           1         2         3         4         5
                        (A1)--O   (A1)--O   (B2)--O   (A1)--O   (B1)--V
     Eigenvalues --   -14.37889  -0.80905  -0.48093  -0.29540  -0.08510
   1 1   N  1S          0.55780  -0.10995   0.00000  -0.05065   0.00000
   2        2S          0.46550  -0.17086   0.00000  -0.08056   0.00000
   3        2PX         0.00000   0.00000   0.00000   0.00000   0.25245
   4        2PY         0.00000   0.00000   0.22269   0.00000   0.00000
   5        2PZ        -0.00115  -0.06317   0.00000   0.25148   0.00000
   6        3S          0.01460   0.46493   0.00000   0.22484   0.00000
   7        3PX         0.00000   0.00000   0.00000   0.00000   0.32887
   8        3PY         0.00000   0.00000   0.30613   0.00000   0.00000
   9        3PZ        -0.00231  -0.09246   0.00000   0.32522   0.00000
  10        4S         -0.00200   0.35000   0.00000   0.40978   0.00000
  11        4PX         0.00000   0.00000   0.00000   0.00000   0.60045
  12        4PY         0.00000   0.00000   0.18339   0.00000   0.00000
  13        4PZ        -0.00065  -0.04159   0.00000   0.37727   0.00000
  14        5D 0        0.00032   0.00796   0.00000  -0.02288   0.00000
  15        5D+1        0.00000   0.00000   0.00000   0.00000  -0.01852
  16        5D-1        0.00000   0.00000  -0.02801   0.00000   0.00000
  17        5D+2       -0.00195  -0.01999   0.00000  -0.00322   0.00000
  18        5D-2        0.00000   0.00000   0.00000   0.00000   0.00000
  19 2   H  1S         -0.00028   0.11261   0.15865  -0.07686   0.00000
  20        2S         -0.00313   0.11681   0.22652  -0.12432   0.00000
  21        3S          0.00115   0.00574   0.08616  -0.05364   0.00000
  22        4PX         0.00000   0.00000   0.00000   0.00000   0.03446
  23        4PY         0.00212  -0.01826  -0.00790   0.02001   0.00000
  24        4PZ        -0.00142   0.00806   0.01714   0.01602   0.00000
  25 3   H  1S         -0.00028   0.11261  -0.15865  -0.07686   0.00000
  26        2S         -0.00313   0.11681  -0.22652  -0.12432   0.00000
  27        3S          0.00115   0.00574  -0.08616  -0.05364   0.00000
  28        4PX         0.00000   0.00000   0.00000   0.00000   0.03446
  29        4PY        -0.00212   0.01826  -0.00790  -0.02001   0.00000
  30        4PZ        -0.00142   0.00806  -0.01714   0.01602   0.00000
                           6         7         8         9        10
                        (A1)--V   (B2)--V   (B2)--V   (A1)--V   (A1)--V
     Eigenvalues --     0.04829   0.09837   0.35691   0.39624   0.60668
   1 1   N  1S         -0.04369   0.00000   0.00000   0.03546   0.00964
   2        2S         -0.06700   0.00000   0.00000   0.05997   0.01642
   3        2PX         0.00000   0.00000   0.00000   0.00000   0.00000
   4        2PY         0.00000  -0.15908  -0.11420   0.00000   0.00000
   5        2PZ        -0.09287   0.00000   0.00000   0.08095  -0.26326
   6        3S          0.12395   0.00000   0.00000  -0.13872   0.00553
   7        3PX         0.00000   0.00000   0.00000   0.00000   0.00000
   8        3PY         0.00000  -0.14476  -0.23408   0.00000   0.00000
   9        3PZ        -0.13432   0.00000   0.00000   0.19079  -0.79171
  10        4S          1.17556   0.00000   0.00000  -1.34890  -0.82207
  11        4PX         0.00000   0.00000   0.00000   0.00000   0.00000
  12        4PY         0.00000  -0.71890  -1.13758   0.00000   0.00000
  13        4PZ        -0.33444   0.00000   0.00000   0.96790   1.44017
  14        5D 0        0.01061   0.00000   0.00000  -0.02118   0.01223
  15        5D+1        0.00000   0.00000   0.00000   0.00000   0.00000
  16        5D-1        0.00000   0.00406   0.00421   0.00000   0.00000
  17        5D+2       -0.01115   0.00000   0.00000   0.00141   0.02434
  18        5D-2        0.00000   0.00000   0.00000   0.00000   0.00000
  19 2   H  1S         -0.03728   0.02953   0.10369   0.10389  -0.01785
  20        2S         -0.01972  -0.06748   1.32740   1.58275   0.30620
  21        3S         -0.95105   1.58980  -0.59889  -0.45283   0.29569
  22        4PX         0.00000   0.00000   0.00000   0.00000   0.00000
  23        4PY        -0.00660   0.01685  -0.03186  -0.00364  -0.09594
  24        4PZ        -0.00026  -0.01615  -0.01219   0.04603   0.03449
  25 3   H  1S         -0.03728  -0.02953  -0.10369   0.10389  -0.01785
  26        2S         -0.01972   0.06748  -1.32740   1.58275   0.30620
  27        3S         -0.95105  -1.58980   0.59889  -0.45283   0.29569
  28        4PX         0.00000   0.00000   0.00000   0.00000   0.00000
  29        4PY         0.00660   0.01685  -0.03186   0.00364   0.09594
  30        4PZ        -0.00026   0.01615   0.01219   0.04603   0.03449
                          11        12        13        14        15
                        (B1)--V   (B2)--V   (A1)--V   (A2)--V   (A1)--V
     Eigenvalues --     0.64862   0.70039   0.84856   1.18756   1.23556
   1 1   N  1S          0.00000   0.00000   0.11611   0.00000   0.01667
   2        2S          0.00000   0.00000   0.22164   0.00000   0.03348
   3        2PX        -0.26638   0.00000   0.00000   0.00000   0.00000
   4        2PY         0.00000  -0.26938   0.00000   0.00000   0.00000
   5        2PZ         0.00000   0.00000   0.03587   0.00000  -0.05422
   6        3S          0.00000   0.00000  -1.64900   0.00000  -0.32522
   7        3PX        -0.90571   0.00000   0.00000   0.00000   0.00000
   8        3PY         0.00000  -0.79023   0.00000   0.00000   0.00000
   9        3PZ         0.00000   0.00000  -0.19891   0.00000  -0.12545
  10        4S          0.00000   0.00000   3.39504   0.00000   1.18865
  11        4PX         1.11736   0.00000   0.00000   0.00000   0.00000
  12        4PY         0.00000   1.86026   0.00000   0.00000   0.00000
  13        4PZ         0.00000   0.00000  -0.63909   0.00000  -0.81412
  14        5D 0        0.00000   0.00000   0.01268   0.00000  -0.27188
  15        5D+1        0.00699   0.00000   0.00000   0.00000   0.00000
  16        5D-1        0.00000  -0.03875   0.00000   0.00000   0.00000
  17        5D+2        0.00000   0.00000  -0.05785   0.00000  -0.07858
  18        5D-2        0.00000   0.00000   0.00000   0.24337   0.00000
  19 2   H  1S          0.00000   0.03953   0.04821   0.00000   0.05234
  20        2S          0.00000  -0.16293  -0.72840   0.00000  -0.73501
  21        3S          0.00000  -1.06274  -0.62836   0.00000  -0.02579
  22        4PX        -0.04070   0.00000   0.00000   0.62455   0.00000
  23        4PY         0.00000   0.10351   0.21724   0.00000   0.39998
  24        4PZ         0.00000  -0.08799  -0.21319   0.00000   0.49651
  25 3   H  1S          0.00000  -0.03953   0.04821   0.00000   0.05234
  26        2S          0.00000   0.16293  -0.72840   0.00000  -0.73501
  27        3S          0.00000   1.06274  -0.62836   0.00000  -0.02579
  28        4PX        -0.04070   0.00000   0.00000  -0.62455   0.00000
  29        4PY         0.00000   0.10351  -0.21724   0.00000  -0.39998
  30        4PZ         0.00000   0.08799  -0.21319   0.00000   0.49651
                          16        17        18        19        20
                        (B1)--V   (B2)--V   (B2)--V   (A1)--V   (A1)--V
     Eigenvalues --     1.38987   1.54487   1.81163   1.88472   2.19279
   1 1   N  1S          0.00000   0.00000   0.00000  -0.02915   0.04839
   2        2S          0.00000   0.00000   0.00000  -0.05120   0.12036
   3        2PX        -0.07463   0.00000   0.00000   0.00000   0.00000
   4        2PY         0.00000   0.00474   0.16076   0.00000   0.00000
   5        2PZ         0.00000   0.00000   0.00000  -0.14453  -0.05391
   6        3S          0.00000   0.00000   0.00000   0.24657  -1.01973
   7        3PX        -0.12784   0.00000   0.00000   0.00000   0.00000
   8        3PY         0.00000  -0.03081   0.22272   0.00000   0.00000
   9        3PZ         0.00000   0.00000   0.00000  -0.09878   0.65057
  10        4S          0.00000   0.00000   0.00000  -0.65449  -0.84210
  11        4PX        -0.37868   0.00000   0.00000   0.00000   0.00000
  12        4PY         0.00000   0.86471  -0.21912   0.00000   0.00000
  13        4PZ         0.00000   0.00000   0.00000   0.42640   0.28684
  14        5D 0        0.00000   0.00000   0.00000  -0.10107   0.31670
  15        5D+1       -0.30927   0.00000   0.00000   0.00000   0.00000
  16        5D-1        0.00000  -0.13921   0.46587   0.00000   0.00000
  17        5D+2        0.00000   0.00000   0.00000   0.48354  -0.19836
  18        5D-2        0.00000   0.00000   0.00000   0.00000   0.00000
  19 2   H  1S          0.00000   0.15909  -0.65783  -0.78731  -0.68687
  20        2S          0.00000  -0.67754   1.01965   1.34039   1.59731
  21        3S          0.00000   0.05456  -0.53802  -0.35843  -0.24992
  22        4PX         0.67489   0.00000   0.00000   0.00000   0.00000
  23        4PY         0.00000  -0.49512   0.07917   0.20006  -0.62742
  24        4PZ         0.00000  -0.57479  -0.37083  -0.05869   0.50781
  25 3   H  1S          0.00000  -0.15909   0.65783  -0.78731  -0.68687
  26        2S          0.00000   0.67754  -1.01965   1.34039   1.59731
  27        3S          0.00000  -0.05456   0.53802  -0.35843  -0.24992
  28        4PX         0.67489   0.00000   0.00000   0.00000   0.00000
  29        4PY         0.00000  -0.49512   0.07917  -0.20006   0.62742
  30        4PZ         0.00000   0.57479   0.37083  -0.05869   0.50781
                          21        22        23        24        25
                        (B2)--V   (B1)--V   (A2)--V   (A1)--V   (A1)--V
     Eigenvalues --     2.27942   2.33975   2.44279   2.63953   2.87030
   1 1   N  1S          0.00000   0.00000   0.00000  -0.02021  -0.05287
   2        2S          0.00000   0.00000   0.00000  -0.04729  -0.11119
   3        2PX         0.00000  -0.05815   0.00000   0.00000   0.00000
   4        2PY         0.00454   0.00000   0.00000   0.00000   0.00000
   5        2PZ         0.00000   0.00000   0.00000  -0.13597  -0.37721
   6        3S          0.00000   0.00000   0.00000   0.30531   0.67847
   7        3PX         0.00000  -0.03121   0.00000   0.00000   0.00000
   8        3PY        -1.28344   0.00000   0.00000   0.00000   0.00000
   9        3PZ         0.00000   0.00000   0.00000  -0.27513  -0.36241
  10        4S          0.00000   0.00000   0.00000   1.29133   1.99586
  11        4PX         0.00000  -0.30094   0.00000   0.00000   0.00000
  12        4PY        -0.52800   0.00000   0.00000   0.00000   0.00000
  13        4PZ         0.00000   0.00000   0.00000  -0.85947  -0.77717
  14        5D 0        0.00000   0.00000   0.00000   1.03983  -0.14486
  15        5D+1        0.00000   1.01709   0.00000   0.00000   0.00000
  16        5D-1        0.26253   0.00000   0.00000   0.00000   0.00000
  17        5D+2        0.00000   0.00000   0.00000   0.02212  -1.16375
  18        5D-2        0.00000   0.00000   1.08179   0.00000   0.00000
  19 2   H  1S         -0.69476   0.00000   0.00000   0.16443  -0.28912
  20        2S          2.01389   0.00000   0.00000  -1.09826  -1.22865
  21        3S         -0.42890   0.00000   0.00000   0.00224  -0.15923
  22        4PX         0.00000   0.50668  -0.49282   0.00000   0.00000
  23        4PY        -0.89648   0.00000   0.00000   0.74132   0.73774
  24        4PZ         0.73316   0.00000   0.00000   0.21407  -0.69364
  25 3   H  1S          0.69476   0.00000   0.00000   0.16443  -0.28912
  26        2S         -2.01389   0.00000   0.00000  -1.09826  -1.22865
  27        3S          0.42890   0.00000   0.00000   0.00224  -0.15923
  28        4PX         0.00000   0.50668   0.49282   0.00000   0.00000
  29        4PY        -0.89648   0.00000   0.00000  -0.74132  -0.73774
  30        4PZ        -0.73316   0.00000   0.00000   0.21407  -0.69364
                          26        27        28        29        30
                        (B2)--V   (B1)--V   (A1)--V   (B2)--V   (A1)--V
     Eigenvalues --     2.97226   3.76857   3.98240   4.61714  35.46019
   1 1   N  1S          0.00000   0.00000   0.04095   0.00000  -2.14774
   2        2S          0.00000   0.00000   0.07778   0.00000   2.27885
   3        2PX         0.00000  -1.29137   0.00000   0.00000   0.00000
   4        2PY        -0.56555   0.00000   0.00000  -1.27151   0.00000
   5        2PZ         0.00000   0.00000  -1.25395   0.00000  -0.03377
   6        3S          0.00000   0.00000  -0.51215   0.00000  -0.42728
   7        3PX         0.00000   1.43174   0.00000   0.00000   0.00000
   8        3PY        -0.19230   0.00000   0.00000   2.63866   0.00000
   9        3PZ         0.00000   0.00000   1.95714   0.00000   0.15978
  10        4S          0.00000   0.00000  -1.08891   0.00000   0.03263
  11        4PX         0.00000  -0.49201   0.00000   0.00000   0.00000
  12        4PY        -0.96851   0.00000   0.00000  -0.19099   0.00000
  13        4PZ         0.00000   0.00000  -0.10767   0.00000   0.03022
  14        5D 0        0.00000   0.00000  -0.12477   0.00000  -0.00543
  15        5D+1        0.00000  -0.06080   0.00000   0.00000   0.00000
  16        5D-1        1.23691   0.00000   0.00000  -1.00928   0.00000
  17        5D+2        0.00000   0.00000   0.48709   0.00000   0.07312
  18        5D-2        0.00000   0.00000   0.00000   0.00000   0.00000
  19 2   H  1S          0.49308   0.00000   0.30183  -0.53939   0.01442
  20        2S          0.58684   0.00000   0.72489  -0.82481   0.17505
  21        3S          0.35264   0.00000   0.01484   0.24176  -0.05035
  22        4PX         0.00000  -0.11145   0.00000   0.00000   0.00000
  23        4PY        -0.65101   0.00000  -0.61246   0.75831  -0.12357
  24        4PZ         0.40496   0.00000   0.26643  -0.61803   0.07911
  25 3   H  1S         -0.49308   0.00000   0.30183   0.53939   0.01442
  26        2S         -0.58684   0.00000   0.72489   0.82481   0.17505
  27        3S         -0.35264   0.00000   0.01484  -0.24176  -0.05035
  28        4PX         0.00000  -0.11145   0.00000   0.00000   0.00000
  29        4PY        -0.65101   0.00000   0.61246   0.75831   0.12357
  30        4PZ        -0.40496   0.00000   0.26643   0.61803   0.07911
     Alpha Density Matrix:
                           1         2         3         4         5
   1 1   N  1S          0.32627
   2        2S          0.28394   0.25533
   3        2PX         0.00000   0.00000   0.08850
   4        2PY        -0.00000  -0.00000  -0.00000   0.05299
   5        2PZ        -0.00618  -0.00955   0.00000   0.00000   0.06938
   6        3S         -0.06007  -0.10186   0.00000   0.00000   0.02680
   7        3PX         0.00000   0.00000   0.13001  -0.00000   0.00000
   8        3PY        -0.00000  -0.00000  -0.00000   0.07724   0.00000
   9        3PZ        -0.00800  -0.01226   0.00000   0.00000   0.09781
  10        4S         -0.06126  -0.09572   0.00000   0.00000   0.07285
  11        4PX         0.00000   0.00000   0.13619  -0.00000   0.00000
  12        4PY        -0.00000  -0.00000  -0.00000   0.04282   0.00000
  13        4PZ        -0.01206  -0.01939   0.00000   0.00000   0.09297
  14        5D 0        0.00138   0.00223  -0.00000   0.00000  -0.00710
  15        5D+1       -0.00000   0.00000  -0.00810   0.00000  -0.00000
  16        5D-1        0.00000   0.00000   0.00000  -0.00706  -0.00000
  17        5D+2       -0.00078  -0.00068   0.00000   0.00000   0.00155
  18        5D-2        0.00000   0.00000  -0.00000  -0.00000  -0.00000
  19 2   H  1S         -0.00857  -0.01325  -0.00000   0.03462  -0.02583
  20        2S         -0.00671  -0.00905  -0.00000   0.04876  -0.03738
  21        3S          0.00317   0.00451  -0.00000   0.01668  -0.01225
  22        4PX        -0.00000  -0.00000   0.00799  -0.00000  -0.00000
  23        4PY         0.00245   0.00290  -0.00000  -0.00176   0.00568
  24        4PZ        -0.00268  -0.00361  -0.00000   0.00362   0.00327
  25 3   H  1S         -0.00857  -0.01325   0.00000  -0.03462  -0.02583
  26        2S         -0.00671  -0.00905   0.00000  -0.04876  -0.03738
  27        3S          0.00317   0.00451   0.00000  -0.01668  -0.01225
  28        4PX         0.00000   0.00000   0.00799  -0.00000   0.00000
  29        4PY        -0.00245  -0.00290  -0.00000  -0.00176  -0.00568
  30        4PZ        -0.00268  -0.00361   0.00000  -0.00362   0.00327
                           6         7         8         9        10
   6        3S          0.30974
   7        3PX         0.00000   0.19099
   8        3PY         0.00000  -0.00000   0.11259
   9        3PZ         0.03413   0.00000   0.00000   0.13793
  10        4S          0.26715   0.00000   0.00000   0.09979   0.26755
  11        4PX         0.00000   0.20007  -0.00000   0.00000   0.00000
  12        4PY         0.00000  -0.00000   0.06241   0.00000   0.00000
  13        4PZ         0.05653   0.00000   0.00000   0.13082   0.11408
  14        5D 0       -0.00651  -0.00000   0.00000  -0.00996  -0.01046
  15        5D+1        0.00000  -0.01191   0.00000  -0.00000   0.00000
  16        5D-1       -0.00000   0.00000  -0.01028  -0.00000  -0.00000
  17        5D+2        0.00015   0.00000   0.00000   0.00219   0.00129
  18        5D-2       -0.00000  -0.00000  -0.00000  -0.00000  -0.00000
  19 2   H  1S          0.03627  -0.00000   0.05046  -0.03698   0.00985
  20        2S          0.02027  -0.00000   0.07107  -0.05311  -0.01144
  21        3S         -0.01120  -0.00000   0.02432  -0.01719  -0.01805
  22        4PX         0.00000   0.01173  -0.00000   0.00000  -0.00000
  23        4PY        -0.00505  -0.00000  -0.00257   0.00810   0.00014
  24        4PZ         0.00820  -0.00000   0.00527   0.00452   0.00900
  25 3   H  1S          0.03627   0.00000  -0.05046  -0.03698   0.00985
  26        2S          0.02027   0.00000  -0.07107  -0.05311  -0.01144
  27        3S         -0.01120   0.00000  -0.02432  -0.01719  -0.01805
  28        4PX        -0.00000   0.01173  -0.00000   0.00000   0.00000
  29        4PY         0.00505  -0.00000  -0.00257  -0.00810  -0.00014
  30        4PZ         0.00820   0.00000  -0.00527   0.00452   0.00900
                          11        12        13        14        15
  11        4PX         0.20957
  12        4PY        -0.00000   0.03460
  13        4PZ         0.00000   0.00000   0.12601
  14        5D 0       -0.00000   0.00000  -0.00977   0.00077
  15        5D+1       -0.01247   0.00000  -0.00000   0.00000   0.00074
  16        5D-1        0.00000  -0.00570  -0.00000  -0.00000  -0.00000
  17        5D+2        0.00000   0.00000   0.00204  -0.00015   0.00000
  18        5D-2       -0.00000  -0.00000  -0.00000   0.00000   0.00000
  19 2   H  1S         -0.00000   0.02797  -0.03143   0.00206   0.00000
  20        2S         -0.00000   0.03940  -0.04770   0.00338   0.00000
  21        3S         -0.00000   0.01348  -0.01686   0.00133   0.00000
  22        4PX         0.01229  -0.00000   0.00000   0.00000  -0.00073
  23        4PY        -0.00000  -0.00142   0.00712  -0.00049   0.00000
  24        4PZ        -0.00000   0.00292   0.00485  -0.00042   0.00000
  25 3   H  1S          0.00000  -0.02797  -0.03143   0.00206  -0.00000
  26        2S          0.00000  -0.03940  -0.04770   0.00338  -0.00000
  27        3S          0.00000  -0.01348  -0.01686   0.00133  -0.00000
  28        4PX         0.01229  -0.00000   0.00000  -0.00000  -0.00073
  29        4PY        -0.00000  -0.00142  -0.00712   0.00049   0.00000
  30        4PZ         0.00000  -0.00292   0.00485  -0.00042  -0.00000
                          16        17        18        19        20
  16        5D-1        0.00094
  17        5D+2       -0.00000   0.00004
  18        5D-2        0.00000  -0.00000   0.00000
  19 2   H  1S         -0.00461  -0.00064   0.00000   0.03939
  20        2S         -0.00649  -0.00088   0.00000   0.05115   0.06906
  21        3S         -0.00222  -0.00027   0.00000   0.01446   0.02119
  22        4PX         0.00000  -0.00000  -0.00000   0.00000   0.00000
  23        4PY         0.00023   0.00013  -0.00000  -0.00440  -0.00554
  24        4PZ        -0.00048   0.00006  -0.00000   0.00222   0.00238
  25 3   H  1S          0.00461  -0.00064   0.00000  -0.00584  -0.01255
  26        2S          0.00649  -0.00088   0.00000  -0.01255  -0.02067
  27        3S          0.00222  -0.00027   0.00000  -0.00734  -0.00951
  28        4PX         0.00000   0.00000  -0.00000  -0.00000  -0.00000
  29        4PY         0.00023  -0.00013   0.00000   0.00209   0.00230
  30        4PZ         0.00048   0.00006  -0.00000  -0.00250  -0.00427
                          21        22        23        24        25
  21        3S          0.00756
  22        4PX         0.00000   0.00072
  23        4PY        -0.00140  -0.00000   0.00071
  24        4PZ         0.00041   0.00000  -0.00003   0.00056
  25 3   H  1S         -0.00734   0.00000  -0.00209  -0.00250   0.03939
  26        2S         -0.00951   0.00000  -0.00230  -0.00427   0.05115
  27        3S         -0.00295   0.00000  -0.00029  -0.00187   0.01446
  28        4PX        -0.00000   0.00072  -0.00000   0.00000  -0.00000
  29        4PY         0.00029  -0.00000  -0.00059  -0.00021   0.00440
  30        4PZ        -0.00187   0.00000   0.00021   0.00007   0.00222
                          26        27        28        29        30
  26        2S          0.06906
  27        3S          0.02119   0.00756
  28        4PX        -0.00000  -0.00000   0.00072
  29        4PY         0.00554   0.00140  -0.00000   0.00071
  30        4PZ         0.00238   0.00041   0.00000   0.00003   0.00056
     Beta Density Matrix:
                           1         2         3         4         5
   1 1   N  1S          0.32579
   2        2S          0.28252   0.25237
   3        2PX         0.00000   0.00000   0.00000
   4        2PY        -0.00000  -0.00000  -0.00000   0.04959
   5        2PZ        -0.00644  -0.01000   0.00000   0.00000   0.06724
   6        3S         -0.05436  -0.09075   0.00000   0.00000   0.02716
   7        3PX         0.00000   0.00000   0.00000  -0.00000   0.00000
   8        3PY        -0.00000  -0.00000  -0.00000   0.06817   0.00000
   9        3PZ        -0.00760  -0.01148   0.00000   0.00000   0.08763
  10        4S         -0.06035  -0.09375   0.00000   0.00000   0.08095
  11        4PX         0.00000   0.00000   0.00000  -0.00000   0.00000
  12        4PY        -0.00000  -0.00000  -0.00000   0.04084   0.00000
  13        4PZ        -0.01490  -0.02359   0.00000   0.00000   0.09751
  14        5D 0        0.00046   0.00063  -0.00000   0.00000  -0.00626
  15        5D+1        0.00000   0.00000  -0.00000   0.00000  -0.00000
  16        5D-1        0.00000   0.00000   0.00000  -0.00624  -0.00000
  17        5D+2        0.00127   0.00277   0.00000   0.00000   0.00046
  18        5D-2        0.00000   0.00000  -0.00000  -0.00000  -0.00000
  19 2   H  1S         -0.00865  -0.01318  -0.00000   0.03533  -0.02644
  20        2S         -0.00830  -0.01140  -0.00000   0.05044  -0.03864
  21        3S          0.00273   0.00388  -0.00000   0.01919  -0.01385
  22        4PX        -0.00000  -0.00000  -0.00000   0.00000  -0.00000
  23        4PY         0.00218   0.00250   0.00000  -0.00176   0.00618
  24        4PZ        -0.00249  -0.00333  -0.00000   0.00382   0.00352
  25 3   H  1S         -0.00865  -0.01318   0.00000  -0.03533  -0.02644
  26        2S         -0.00830  -0.01140   0.00000  -0.05044  -0.03864
  27        3S          0.00273   0.00388   0.00000  -0.01919  -0.01385
  28        4PX         0.00000   0.00000  -0.00000   0.00000   0.00000
  29        4PY        -0.00218  -0.00250   0.00000  -0.00176  -0.00618
  30        4PZ        -0.00249  -0.00333   0.00000  -0.00382   0.00352
                           6         7         8         9        10
   6        3S          0.26693
   7        3PX         0.00000   0.00000
   8        3PY         0.00000  -0.00000   0.09371
   9        3PZ         0.03010   0.00000   0.00000   0.11432
  10        4S          0.25483   0.00000   0.00000   0.10091   0.29043
  11        4PX         0.00000   0.00000  -0.00000   0.00000   0.00000
  12        4PY         0.00000  -0.00000   0.05614   0.00000   0.00000
  13        4PZ         0.06548   0.00000   0.00000   0.12655   0.14005
  14        5D 0       -0.00144  -0.00000   0.00000  -0.00818  -0.00659
  15        5D+1        0.00000  -0.00000   0.00000  -0.00000   0.00000
  16        5D-1       -0.00000   0.00000  -0.00857  -0.00000  -0.00000
  17        5D+2       -0.01004   0.00000   0.00000   0.00081  -0.00831
  18        5D-2       -0.00000  -0.00000  -0.00000  -0.00000  -0.00000
  19 2   H  1S          0.03507  -0.00000   0.04857  -0.03541   0.00792
  20        2S          0.02631  -0.00000   0.06934  -0.05123  -0.01005
  21        3S         -0.00938  -0.00000   0.02638  -0.01798  -0.01998
  22        4PX         0.00000  -0.00000   0.00000  -0.00000  -0.00000
  23        4PY        -0.00396   0.00000  -0.00242   0.00819   0.00180
  24        4PZ         0.00733  -0.00000   0.00525   0.00447   0.00939
  25 3   H  1S          0.03507   0.00000  -0.04857  -0.03541   0.00792
  26        2S          0.02631   0.00000  -0.06934  -0.05123  -0.01005
  27        3S         -0.00938   0.00000  -0.02638  -0.01798  -0.01998
  28        4PX        -0.00000  -0.00000   0.00000   0.00000   0.00000
  29        4PY         0.00396   0.00000  -0.00242  -0.00819  -0.00180
  30        4PZ         0.00733   0.00000  -0.00525   0.00447   0.00939
                          11        12        13        14        15
  11        4PX         0.00000
  12        4PY        -0.00000   0.03363
  13        4PZ         0.00000   0.00000   0.14407
  14        5D 0       -0.00000  -0.00000  -0.00896   0.00059
  15        5D+1       -0.00000   0.00000  -0.00000  -0.00000   0.00000
  16        5D-1        0.00000  -0.00514  -0.00000  -0.00000  -0.00000
  17        5D+2       -0.00000   0.00000  -0.00038  -0.00009   0.00000
  18        5D-2        0.00000  -0.00000  -0.00000   0.00000   0.00000
  19 2   H  1S         -0.00000   0.02910  -0.03368   0.00265   0.00000
  20        2S         -0.00000   0.04154  -0.05176   0.00377   0.00000
  21        3S         -0.00000   0.01580  -0.02048   0.00127   0.00000
  22        4PX        -0.00000   0.00000  -0.00000   0.00000   0.00000
  23        4PY         0.00000  -0.00145   0.00831  -0.00060   0.00000
  24        4PZ        -0.00000   0.00314   0.00571  -0.00030   0.00000
  25 3   H  1S          0.00000  -0.02910  -0.03368   0.00265  -0.00000
  26        2S          0.00000  -0.04154  -0.05176   0.00377  -0.00000
  27        3S          0.00000  -0.01580  -0.02048   0.00127  -0.00000
  28        4PX        -0.00000   0.00000   0.00000  -0.00000   0.00000
  29        4PY         0.00000  -0.00145  -0.00831   0.00060  -0.00000
  30        4PZ         0.00000  -0.00314   0.00571  -0.00030  -0.00000
                          16        17        18        19        20
  16        5D-1        0.00078
  17        5D+2       -0.00000   0.00041
  18        5D-2        0.00000  -0.00000   0.00000
  19 2   H  1S         -0.00444  -0.00200   0.00000   0.04376
  20        2S         -0.00634  -0.00193   0.00000   0.05865   0.08042
  21        3S         -0.00241   0.00006   0.00000   0.01844   0.02685
  22        4PX        -0.00000  -0.00000  -0.00000   0.00000   0.00000
  23        4PY         0.00022   0.00030  -0.00000  -0.00485  -0.00642
  24        4PZ        -0.00048  -0.00021  -0.00000   0.00240   0.00284
  25 3   H  1S          0.00444  -0.00200   0.00000  -0.00658  -0.01323
  26        2S          0.00634  -0.00193   0.00000  -0.01323  -0.02220
  27        3S          0.00241   0.00006   0.00000  -0.00890  -0.01218
  28        4PX        -0.00000   0.00000   0.00000  -0.00000  -0.00000
  29        4PY         0.00022  -0.00030   0.00000   0.00234   0.00284
  30        4PZ         0.00048  -0.00021  -0.00000  -0.00304  -0.00493
                          21        22        23        24        25
  21        3S          0.01034
  22        4PX         0.00000   0.00000
  23        4PY        -0.00186  -0.00000   0.00080
  24        4PZ         0.00066   0.00000   0.00003   0.00062
  25 3   H  1S         -0.00890   0.00000  -0.00234  -0.00304   0.04376
  26        2S         -0.01218   0.00000  -0.00284  -0.00493   0.05865
  27        3S         -0.00451   0.00000  -0.00049  -0.00229   0.01844
  28        4PX        -0.00000  -0.00000   0.00000   0.00000  -0.00000
  29        4PY         0.00049   0.00000  -0.00068  -0.00031   0.00485
  30        4PZ        -0.00229  -0.00000   0.00031   0.00003   0.00240
                          26        27        28        29        30
  26        2S          0.08042
  27        3S          0.02685   0.01034
  28        4PX        -0.00000  -0.00000   0.00000
  29        4PY         0.00642   0.00186  -0.00000   0.00080
  30        4PZ         0.00284   0.00066   0.00000  -0.00003   0.00062
    Full Mulliken population analysis:
                           1         2         3         4         5
   1 1   N  1S          0.65206
   2        2S          0.50543   0.50770
   3        2PX         0.00000   0.00000   0.08850
   4        2PY         0.00000   0.00000   0.00000   0.10258
   5        2PZ         0.00000   0.00000   0.00000   0.00000   0.13661
   6        3S         -0.03939  -0.07914   0.00000   0.00000   0.00000
   7        3PX         0.00000   0.00000   0.08061   0.00000   0.00000
   8        3PY         0.00000   0.00000   0.00000   0.09015   0.00000
   9        3PZ         0.00000   0.00000   0.00000   0.00000   0.11497
  10        4S         -0.01927  -0.03408   0.00000   0.00000   0.00000
  11        4PX         0.00000   0.00000   0.02857   0.00000   0.00000
  12        4PY         0.00000   0.00000   0.00000   0.01755   0.00000
  13        4PZ         0.00000   0.00000   0.00000   0.00000   0.03995
  14        5D 0        0.00000   0.00000   0.00000   0.00000   0.00000
  15        5D+1       -0.00000   0.00000   0.00000   0.00000   0.00000
  16        5D-1       -0.00000   0.00000   0.00000   0.00000   0.00000
  17        5D+2       -0.00000  -0.00000   0.00000   0.00000   0.00000
  18        5D-2       -0.00000  -0.00000   0.00000   0.00000   0.00000
  19 2   H  1S         -0.00025  -0.00035   0.00000   0.00542   0.00289
  20        2S         -0.00111  -0.00169   0.00000   0.01069   0.00584
  21        3S          0.00041   0.00065   0.00000   0.00125   0.00065
  22        4PX        -0.00000  -0.00000   0.00070  -0.00000   0.00000
  23        4PY        -0.00038  -0.00050   0.00000   0.00051   0.00198
  24        4PZ        -0.00030  -0.00046   0.00000   0.00124  -0.00021
  25 3   H  1S         -0.00025  -0.00035   0.00000   0.00542   0.00289
  26        2S         -0.00111  -0.00169   0.00000   0.01069   0.00584
  27        3S          0.00041   0.00065   0.00000   0.00125   0.00065
  28        4PX         0.00000   0.00000   0.00070   0.00000   0.00000
  29        4PY        -0.00038  -0.00050   0.00000   0.00051   0.00198
  30        4PZ        -0.00030  -0.00046   0.00000   0.00124  -0.00021
                           6         7         8         9        10
   6        3S          0.57667
   7        3PX         0.00000   0.19099
   8        3PY         0.00000   0.00000   0.20630
   9        3PZ         0.00000   0.00000   0.00000   0.25226
  10        4S          0.40028   0.00000   0.00000   0.00000   0.55797
  11        4PX         0.00000   0.12853   0.00000   0.00000   0.00000
  12        4PY         0.00000   0.00000   0.07617   0.00000   0.00000
  13        4PZ         0.00000   0.00000   0.00000   0.16535   0.00000
  14        5D 0        0.00000   0.00000   0.00000   0.00000  -0.00000
  15        5D+1        0.00000   0.00000   0.00000   0.00000   0.00000
  16        5D-1        0.00000   0.00000   0.00000   0.00000   0.00000
  17        5D+2        0.00000   0.00000   0.00000   0.00000   0.00000
  18        5D-2        0.00000   0.00000   0.00000   0.00000   0.00000
  19 2   H  1S          0.01327   0.00000   0.03024   0.01577   0.00533
  20        2S          0.01915   0.00000   0.04739   0.02512  -0.01321
  21        3S         -0.00827   0.00000   0.00677   0.00335  -0.02746
  22        4PX         0.00000   0.00326  -0.00000   0.00000  -0.00000
  23        4PY         0.00319   0.00000   0.00096   0.00547  -0.00046
  24        4PZ         0.00392   0.00000   0.00353   0.00035   0.00309
  25 3   H  1S          0.01327   0.00000   0.03024   0.01577   0.00533
  26        2S          0.01915   0.00000   0.04739   0.02512  -0.01321
  27        3S         -0.00827   0.00000   0.00677   0.00335  -0.02746
  28        4PX         0.00000   0.00326   0.00000   0.00000   0.00000
  29        4PY         0.00319   0.00000   0.00096   0.00547  -0.00046
  30        4PZ         0.00392   0.00000   0.00353   0.00035   0.00309
                          11        12        13        14        15
  11        4PX         0.20957
  12        4PY         0.00000   0.06823
  13        4PZ         0.00000   0.00000   0.27007
  14        5D 0        0.00000   0.00000   0.00000   0.00136
  15        5D+1        0.00000   0.00000   0.00000   0.00000   0.00074
  16        5D-1        0.00000   0.00000   0.00000   0.00000   0.00000
  17        5D+2        0.00000   0.00000   0.00000  -0.00000   0.00000
  18        5D-2        0.00000   0.00000   0.00000   0.00000   0.00000
  19 2   H  1S          0.00000   0.02031   0.01653   0.00001   0.00000
  20        2S          0.00000   0.04242   0.03718   0.00001   0.00000
  21        3S          0.00000   0.00987   0.00898   0.00000   0.00000
  22        4PX         0.00420   0.00000   0.00000   0.00000   0.00016
  23        4PY        -0.00000  -0.00025   0.00282   0.00019  -0.00000
  24        4PZ         0.00000   0.00111   0.00223   0.00018  -0.00000
  25 3   H  1S          0.00000   0.02031   0.01653   0.00001  -0.00000
  26        2S          0.00000   0.04242   0.03718   0.00001  -0.00000
  27        3S          0.00000   0.00987   0.00898   0.00000  -0.00000
  28        4PX         0.00420   0.00000   0.00000   0.00000   0.00016
  29        4PY         0.00000  -0.00025   0.00282   0.00019   0.00000
  30        4PZ         0.00000   0.00111   0.00223   0.00018  -0.00000
                          16        17        18        19        20
  16        5D-1        0.00172
  17        5D+2       -0.00000   0.00045
  18        5D-2        0.00000   0.00000   0.00000
  19 2   H  1S          0.00268   0.00055  -0.00000   0.08315
  20        2S          0.00192   0.00029  -0.00000   0.07756   0.14948
  21        3S          0.00010   0.00000  -0.00000   0.01229   0.03791
  22        4PX        -0.00000   0.00000  -0.00000   0.00000   0.00000
  23        4PY         0.00009  -0.00000  -0.00000   0.00000   0.00000
  24        4PZ        -0.00000   0.00003   0.00000   0.00000   0.00000
  25 3   H  1S          0.00268   0.00055  -0.00000  -0.00004  -0.00158
  26        2S          0.00192   0.00029  -0.00000  -0.00158  -0.00917
  27        3S          0.00010   0.00000  -0.00000  -0.00247  -0.00817
  28        4PX        -0.00000  -0.00000   0.00000   0.00000   0.00000
  29        4PY         0.00009  -0.00000  -0.00000   0.00016   0.00085
  30        4PZ        -0.00000   0.00003   0.00000   0.00000   0.00000
                          21        22        23        24        25
  21        3S          0.01790
  22        4PX         0.00000   0.00072
  23        4PY         0.00000   0.00000   0.00151
  24        4PZ         0.00000   0.00000   0.00000   0.00118
  25 3   H  1S         -0.00247   0.00000   0.00016  -0.00000   0.08315
  26        2S         -0.00817   0.00000   0.00085  -0.00000   0.07756
  27        3S         -0.00459   0.00000   0.00011  -0.00000   0.01229
  28        4PX         0.00000   0.00002   0.00000   0.00000   0.00000
  29        4PY         0.00011   0.00000   0.00022  -0.00000   0.00000
  30        4PZ         0.00000  -0.00000   0.00000   0.00000   0.00000
                          26        27        28        29        30
  26        2S          0.14948
  27        3S          0.03791   0.01790
  28        4PX         0.00000   0.00000   0.00072
  29        4PY         0.00000   0.00000   0.00000   0.00151
  30        4PZ         0.00000   0.00000   0.00000   0.00000   0.00118
     Gross orbital populations:
                         Total     Alpha     Beta      Spin
   1 1   N  1S          1.09557   0.54772   0.54785  -0.00013
   2        2S          0.89520   0.44744   0.44776  -0.00031
   3        2PX         0.19908   0.19908   0.00000   0.19908
   4        2PY         0.24851   0.12861   0.11990   0.00872
   5        2PZ         0.31384   0.16043   0.15342   0.00701
   6        3S          0.92092   0.48093   0.43999   0.04094
   7        3PX         0.40665   0.40665   0.00000   0.40665
   8        3PY         0.55042   0.29039   0.26003   0.03036
   9        3PZ         0.63269   0.33337   0.29932   0.03405
  10        4S          0.83950   0.41422   0.42528  -0.01105
  11        4PX         0.37508   0.37508   0.00000   0.37508
  12        4PY         0.30886   0.15479   0.15407   0.00071
  13        4PZ         0.61085   0.29394   0.31692  -0.02298
  14        5D 0        0.00214   0.00117   0.00097   0.00020
  15        5D+1        0.00106   0.00106   0.00000   0.00106
  16        5D-1        0.01130   0.00580   0.00550   0.00029
  17        5D+2        0.00220   0.00047   0.00173  -0.00127
  18        5D-2        0.00000  -0.00000   0.00000  -0.00000
  19 2   H  1S          0.28145   0.13549   0.14596  -0.01046
  20        2S          0.42089   0.19803   0.22286  -0.02484
  21        3S          0.04927   0.02066   0.02861  -0.00795
  22        4PX         0.00906   0.00906  -0.00000   0.00906
  23        4PY         0.01649   0.00833   0.00816   0.00017
  24        4PZ         0.01590   0.00785   0.00804  -0.00019
  25 3   H  1S          0.28145   0.13549   0.14596  -0.01046
  26        2S          0.42089   0.19803   0.22286  -0.02484
  27        3S          0.04927   0.02066   0.02861  -0.00795
  28        4PX         0.00906   0.00906  -0.00000   0.00906
  29        4PY         0.01649   0.00833   0.00816   0.00017
  30        4PZ         0.01590   0.00785   0.00804  -0.00019
          Condensed to atoms (all electrons):
              1          2          3
     1  N    6.775169   0.319354   0.319354
     2  H    0.319354   0.509451  -0.035743
     3  H    0.319354  -0.035743   0.509451
 Mulliken atomic charges:
              1
     1  N   -0.413876
     2  H    0.206938
     3  H    0.206938
 Sum of Mulliken atomic charges =  -0.00000
 Mulliken charges with hydrogens summed into heavy atoms:
              1
     1  N   -0.000000
 Sum of Mulliken charges with hydrogens summed into heavy atoms =  -0.00000
          Atomic-Atomic Spin Densities.
              1          2          3
     1  N    1.063180   0.002620   0.002620
     2  H    0.002620  -0.040440   0.003610
     3  H    0.002620   0.003610  -0.040440
 Mulliken atomic spin densities:
              1
     1  N    1.068420
     2  H   -0.034210
     3  H   -0.034210
 Sum of Mulliken atomic spin densities =   1.00000
 Electronic spatial extent (au):  <R**2>=             21.1674
 Charge=             -0.0000 electrons
 Dipole moment (field-independent basis, Debye):
    X=             -0.0000    Y=             -0.0000    Z=             -1.9389  Tot=              1.9389
 Quadrupole moment (field-independent basis, Debye-Ang):
   XX=             -6.8564   YY=             -5.2286   ZZ=             -7.4993
   XY=              0.0000   XZ=              0.0000   YZ=             -0.0000
 Traceless Quadrupole moment (field-independent basis, Debye-Ang):
   XX=             -0.3283   YY=              1.2995   ZZ=             -0.9712
   XY=              0.0000   XZ=              0.0000   YZ=             -0.0000
 Octapole moment (field-independent basis, Debye-Ang**2):
  XXX=              0.0000  YYY=             -0.0000  ZZZ=             -1.8109  XYY=             -0.0000
  XXY=              0.0000  XXZ=             -0.4182  XZZ=              0.0000  YZZ=              0.0000
  YYZ=             -1.2263  XYZ=             -0.0000
 Hexadecapole moment (field-independent basis, Debye-Ang**3):
 XXXX=             -5.6643 YYYY=             -8.6689 ZZZZ=             -9.3845 XXXY=             -0.0000
 XXXZ=             -0.0000 YYYX=             -0.0000 YYYZ=              0.0000 ZZZX=             -0.0000
 ZZZY=             -0.0000 XXYY=             -2.6688 XXZZ=             -2.5269 YYZZ=             -2.7692
 XXYZ=             -0.0000 YYXZ=              0.0000 ZZXY=             -0.0000
 N-N= 7.733482223305D+00 E-N=-2.157716847845D+02  KE= 8.274838657300D+01
 Symmetry A1   KE= 7.687921456392D+01
 Symmetry A2   KE= 9.239378017493D-35
[...]
  19         (A1)--V           1.848501          3.424075
  20         (A1)--V           2.234747          3.769613
  21         (B1)--V           2.296573          3.457778
  22         (A2)--V           2.323150          3.514650
  23         (B2)--V           2.369263          3.483234
  24         (A1)--V           2.562964          3.785084
  25         (A1)--V           2.766029          4.820753
  26         (B2)--V           3.011405          5.557111
  27         (B1)--V           3.599085          8.795596
  28         (A1)--V           4.039121          8.855540
  29         (B2)--V           4.558045          8.957270
  30         (A1)--V          35.387518         88.998711
 Orbital energies and kinetic energies (beta):
                                 1                 2
   1         (A1)--O         -14.387826         22.071491
   2         (A1)--O          -0.804481          1.809878
   3         (B2)--O          -0.461231          1.322114
   4         (A1)--O          -0.306546          1.669370
   5         (B1)--V          -0.086625          1.387884
   6         (A1)--V           0.043893          0.665687
   7         (B2)--V           0.096409          0.707315
   8         (B2)--V           0.333439          1.109502
   9         (A1)--V           0.405457          1.362187
  10         (A1)--V           0.605571          2.003231
  11         (B1)--V           0.646447          2.204680
  12         (B2)--V           0.696970          2.143920
  13         (A1)--V           0.848553          2.957465
  14         (A1)--V           1.161497          1.968423
  15         (A2)--V           1.202472          1.977100
  16         (B1)--V           1.354906          2.162774
  17         (B2)--V           1.572701          2.292408
  18         (B2)--V           1.763569          3.159012
  19         (A1)--V           1.889807          3.560473
  20         (A1)--V           2.180795          3.724685
  21         (B2)--V           2.314770          3.516615
  22         (B1)--V           2.355052          3.478292
  23         (A2)--V           2.390327          3.530376
  24         (A1)--V           2.599078          3.783519
  25         (A1)--V           2.802228          4.764827
  26         (B2)--V           2.970876          5.388858
  27         (B1)--V           3.759859          8.883502
  28         (A1)--V           4.010245          8.831152
  29         (B2)--V           4.496405          9.048333
  30         (A1)--V          35.397812         88.988101
 Total kinetic energy from orbitals= 5.575373900767D+01
  Exact polarizability:   6.162   0.000  10.471   0.000  -0.000   8.442
 Approx polarizability:   5.937   0.000  12.372   0.000   0.000   9.651
                          Isotropic Fermi Contact Couplings
        Atom                 a.u.       MegaHertz       Gauss      10(-4) cm-1
     1  N(14)              0.17009      54.95633      19.60978      18.33146
     2  H(1)              -0.01825     -81.59372     -29.11467     -27.21674
     3  H(1)              -0.01825     -81.59372     -29.11467     -27.21674
 --------------------------------------------------------
       Center         ----  Spin Dipole Couplings  ----
                      3XX-RR        3YY-RR        3ZZ-RR
 --------------------------------------------------------
     1   Atom        2.215140     -1.094831     -1.120310
     2   Atom       -0.025865      0.043992     -0.018127
     3   Atom       -0.025865      0.043992     -0.018127
 --------------------------------------------------------
                        XY            XZ            YZ
 --------------------------------------------------------
     1   Atom       -0.000000     -0.000000     -0.000000
     2   Atom       -0.000000     -0.000000     -0.118563
     3   Atom       -0.000000     -0.000000      0.118563
 --------------------------------------------------------


 ---------------------------------------------------------------------------------
              Anisotropic Spin Dipole Couplings in Principal Axis System
 ---------------------------------------------------------------------------------

       Atom             a.u.   MegaHertz   Gauss  10(-4) cm-1        Axes

              Baa    -1.1203   -43.208   -15.418   -14.413  0.0000  0.0000  1.0000
     1 N(14)  Bbb    -1.0948   -42.225   -15.067   -14.085  0.0000  1.0000 -0.0000
              Bcc     2.2151    85.433    30.485    28.497  1.0000 -0.0000 -0.0000
 
              Baa    -0.1096   -58.494   -20.872   -19.512  0.0000  0.6110  0.7916
     2 H(1)   Bbb    -0.0259   -13.800    -4.924    -4.603  1.0000 -0.0000  0.0000
              Bcc     0.1355    72.294    25.796    24.115  0.0000  0.7916 -0.6110
 
              Baa    -0.1096   -58.494   -20.872   -19.512  0.0000 -0.6110  0.7916
     3 H(1)   Bbb    -0.0259   -13.800    -4.924    -4.603  1.0000  0.0000  0.0000
              Bcc     0.1355    72.294    25.796    24.115 -0.0000  0.7916  0.6110
 

 ---------------------------------------------------------------------------------

 No NMR shielding tensors so no spin-rotation constants.
 Leave Link  601 at Fri Apr 25 16:34:20 2014, MaxMem=   65536000 cpu:       1.0
 (Enter /apps/gaussian/g09/l701.exe)
 Compute integral second derivatives.
 ... and contract with generalized density number  0.
 Leave Link  701 at Fri Apr 25 16:34:21 2014, MaxMem=   65536000 cpu:       0.6
 (Enter /apps/gaussian/g09/l702.exe)
 L702 exits ... SP integral derivatives will be done elsewhere.
 Leave Link  702 at Fri Apr 25 16:34:21 2014, MaxMem=   65536000 cpu:       0.0
 (Enter /apps/gaussian/g09/l703.exe)
 Compute integral second derivatives, UseDBF=F ICtDFT=           0.
 Integral derivatives from FoFDir, PRISM(SPDF).
 Calling FoFJK, ICntrl=    100127 FMM=F ISym2X=1 I1Cent= 0 IOpClX= 1 NMat=1 NMatS=1 NMatT=0.
 FoFCou: FMM=F IPFlag=           0 FMFlag=      100000 FMFlg1=         800
         NFxFlg=           0 DoJE=F BraDBF=F KetDBF=F FulRan=T
         Omega=  0.000000  0.000000  1.000000  0.000000  0.000000 ICntrl=  100127 IOpCl=  1
         NMat0=    1 NMatS0=    1 NMatT0=    0 NMatD0=    1 NMtDS0=    0 NMtDT0=    0
         I1Cent=           0 NGrid=           0.
 Petite list used in FoFCou.
 Leave Link  703 at Fri Apr 25 16:34:21 2014, MaxMem=   65536000 cpu:       2.3
 (Enter /apps/gaussian/g09/l716.exe)
 Dipole        =-3.20331678D-17-1.11737876D-15-7.81606335D-01
 Polarizability= 6.16215670D+00 1.96076947D-11 1.04711743D+01
                 3.31459833D-09-4.64138749D-09 8.44176951D+00
 Full mass-weighted force constant matrix:
 Low frequencies --- -114.8124    0.0005    0.0014    0.0018   74.5306  316.5643
 Low frequencies --- 1499.5887 3374.8031 3474.7777
 Diagonal vibrational polarizability:
        0.0000000       0.0086766       0.2462652
 Harmonic frequencies (cm**-1), IR intensities (KM/Mole), Raman scattering
 activities (A**4/AMU), depolarization ratios for plane and unpolarized
 incident light, reduced masses (AMU), force constants (mDyne/A),
 and normal coordinates:
                     1                      2                      3
                    A1                     A1                     B2
 Frequencies --  1499.5887              3374.8031              3474.7769
 Red. masses --     1.0901                 1.0512                 1.0888
 Frc consts  --     1.4443                 7.0541                 7.7454
 IR Inten    --    18.3591                11.2409                 3.8929
  Atom  AN      X      Y      Z        X      Y      Z        X      Y      Z
     1   7     0.00  -0.00   0.08     0.00  -0.00   0.06     0.00   0.08   0.00
     2   1    -0.00  -0.44  -0.55     0.00   0.58  -0.40     0.00  -0.55   0.44
     3   1    -0.00   0.44  -0.55    -0.00  -0.58  -0.40    -0.00  -0.55  -0.44

 -------------------
 - Thermochemistry -
 -------------------
 Temperature   298.150 Kelvin.  Pressure   1.00000 Atm.
 Atom     1 has atomic number  7 and mass  14.00307
 Atom     2 has atomic number  1 and mass   1.00783
 Atom     3 has atomic number  1 and mass   1.00783
 Molecular mass:    16.01872 amu.
 Principal axes and moments of inertia in atomic units:
                           1         2         3
     Eigenvalues --     2.63306   4.61543   7.24850
           X            0.00000   0.00000   1.00000
           Y            1.00000   0.00000   0.00000
           Z            0.00000   1.00000   0.00000
 This molecule is an asymmetric top.
 Rotational symmetry number  2.
 Rotational temperatures (Kelvin)     32.89468    18.76613    11.94921
 Rotational constants (GHZ):         685.41479   391.02322   248.98145
 Zero-point vibrational energy      49939.1 (Joules/Mol)
                                   11.93574 (Kcal/Mol)
 Vibrational temperatures:   2157.57  4855.58  4999.42
          (Kelvin)
 
 Zero-point correction=                           0.019021 (Hartree/Particle)
 Thermal correction to Energy=                    0.021858
 Thermal correction to Enthalpy=                  0.022802
 Thermal correction to Gibbs Free Energy=         0.000698
 Sum of electronic and zero-point Energies=            -55.833278
 Sum of electronic and thermal Energies=               -55.830441
 Sum of electronic and thermal Enthalpies=             -55.829497
 Sum of electronic and thermal Free Energies=          -55.851601
 
                     E (Thermal)             CV                S
                      KCal/Mol        Cal/Mol-Kelvin    Cal/Mol-Kelvin
 Total                   13.716              6.037             46.523
 Electronic               0.000              0.000              1.377
 Translational            0.889              2.981             34.259
 Rotational               0.889              2.981             10.875
 Vibrational             11.939              0.075              0.012
                       Q            Log10(Q)             Ln(Q)
 Total Bot       0.477609D+00         -0.320927         -0.738963
 Total V=0       0.267927D+09          8.428017         19.406227
 Vib (Bot)       0.178389D-08         -8.748632        -20.144469
 Vib (V=0)       0.100072D+01          0.000313          0.000720
 Electronic      0.200000D+01          0.301030          0.693147
 Translational   0.251998D+07          6.401397         14.739762
 Rotational      0.531224D+02          1.725277          3.972598
 
                                                              product 2
                                                             IR Spectrum
 
     3   3                                                                    1                                                      
     4   3                                                                    5                                                      
     7   7                                                                    0                                                      
     5   5                                                                    0                                                      
 
     X   X                                                                    X                                                      
     X   X                                                                    X                                                      
     X   X                                                                    X                                                      
     X   X                                                                    X                                                      
         X                                                                    X                                                      
         X                                                                    X                                                      
         X                                                                    X                                                      
         X                                                                    X                                                      
         X                                                                    X                                                      
         X                                                                    X                                                      
         X                                                                    X                                                      
         X                                                                    X                                                      
                                                                              X                                                      
                                                                              X                                                      
                                                                              X                                                      
                                                                              X                                                      
                                                                              X                                                      
                                                                              X                                                      
                                                                              X                                                      
                                                                              X                                                      
 
 ***** Axes restored to original set *****
 -------------------------------------------------------------------
 Center     Atomic                   Forces (Hartrees/Bohr)
 Number     Number              X              Y              Z
 -------------------------------------------------------------------
      1        7          -0.000001422    0.000000000   -0.000001015
      2        1           0.000005043    0.000000000   -0.000005566
      3        1          -0.000003621   -0.000000000    0.000006580
 -------------------------------------------------------------------
 Cartesian Forces:  Max     0.000006580 RMS     0.000003588
 Force constants in Cartesian coordinates: 
                1             2             3             4             5 
      1  0.414800D+00
      2  0.000000D+00  0.668230D-02
      3 -0.691875D-01  0.000000D+00  0.462446D+00
      4 -0.356918D-01  0.000000D+00 -0.503050D-01  0.398801D-01
      5  0.000000D+00 -0.334115D-02  0.000000D+00  0.000000D+00  0.177650D-02
      6  0.124478D-02  0.000000D+00 -0.402931D+00  0.782152D-02  0.000000D+00
      7 -0.379108D+00  0.000000D+00  0.119493D+00 -0.418830D-02  0.000000D+00
      8  0.000000D+00 -0.334115D-02  0.000000D+00  0.000000D+00  0.156465D-02
      9  0.679427D-01  0.000000D+00 -0.595149D-01  0.424835D-01  0.000000D+00
                6             7             8             9 
      6  0.418626D+00
      7 -0.906630D-02  0.383296D+00
      8  0.000000D+00  0.000000D+00  0.177650D-02
      9 -0.156948D-01 -0.110426D+00  0.000000D+00  0.752097D-01
 Force constants in internal coordinates: 
                1             2             3 
      1  0.418040D+00
      2 -0.527472D-02  0.418040D+00
      3  0.291913D-01  0.291913D-01  0.153411D+00
 Leave Link  716 at Fri Apr 25 16:34:21 2014, MaxMem=   65536000 cpu:       0.1
 (Enter /apps/gaussian/g09/l103.exe)

 GradGradGradGradGradGradGradGradGradGradGradGradGradGradGradGradGradGrad
 Berny optimization.
 Internal  Forces:  Max     0.000010441 RMS     0.000007398
 Search for a local minimum.
 Step number   1 out of a maximum of    2
 All quantities printed in internal units (Hartrees-Bohrs-Radians)
 Second derivative matrix not updated -- analytic derivatives used.
 The second derivative matrix:
                          R1        R2        A1
           R1           0.41804
           R2          -0.00527   0.41804
           A1           0.02919   0.02919   0.15341
     Eigenvalues ---    0.14700   0.41918   0.42331
 Angle between quadratic step and forces=  25.40 degrees.
 Linear search not attempted -- first point.
 Iteration  1 RMS(Cart)=  0.00004294 RMS(Int)=  0.00000000
 Iteration  2 RMS(Cart)=  0.00000000 RMS(Int)=  0.00000000
 ClnCor:  largest displacement from symmetrization is 6.68D-15 for atom     3.
 Variable       Old X    -DE/DX   Delta X   Delta X   Delta X     New X
                                 (Linear)    (Quad)   (Total)
    R1        1.94529  -0.00001   0.00000  -0.00001  -0.00001   1.94528
    R2        1.94529  -0.00001   0.00000  -0.00001  -0.00001   1.94528
    A1        1.78258  -0.00001   0.00000  -0.00006  -0.00006   1.78252
         Item               Value     Threshold  Converged?
 Maximum Force            0.000010     0.000450     YES
 RMS     Force            0.000007     0.000300     YES
 Maximum Displacement     0.000046     0.001800     YES
 RMS     Displacement     0.000043     0.001200     YES
 Predicted change in Energy=-3.818481D-10
 Optimization completed.
    -- Stationary point found.
                           ----------------------------
                           !   Optimized Parameters   !
                           ! (Angstroms and Degrees)  !
 --------------------------                            --------------------------
 ! Name  Definition              Value          Derivative Info.                !
 --------------------------------------------------------------------------------
 ! R1    R(1,2)                  1.0294         -DE/DX =    0.0                 !
 ! R2    R(1,3)                  1.0294         -DE/DX =    0.0                 !
 ! A1    A(2,1,3)              102.1345         -DE/DX =    0.0                 !
 --------------------------------------------------------------------------------
 GradGradGradGradGradGradGradGradGradGradGradGradGradGradGradGradGradGrad

 Leave Link  103 at Fri Apr 25 16:34:21 2014, MaxMem=   65536000 cpu:       0.0
 (Enter /apps/gaussian/g09/l9999.exe)

 Test job not archived.
 1\1\GINC-ROMEO149\Freq\UM06\6-311G(d,p)\H2N1(2)\ROOT\25-Apr-2014\0\\#P
  Geom=AllCheck Guess=TCheck SCRF=Check Test GenChk UM06/6-311G(d,p) Fr
 eq\\product 2\\0,2\N,-0.0359194658,0.,-0.0256211059\H,0.0257181229,0.,
 1.0019336913\H,0.9557199185,0.,-0.3018807398\\Version=AM64L-G09RevA.02
 \State=2-B1\HF=-55.852299\S2=0.754495\S2-1=0.\S2A=0.750015\RMSD=1.287e
 -09\RMSF=3.588e-06\ZeroPoint=0.0190208\Thermal=0.0218583\Dipole=0.6363
 178,0.,0.4538811\DipoleDeriv=-0.0972368,0.,0.0498149,0.,-0.6097819,0.,
 0.0498149,0.,-0.1315421,0.1960866,0.,-0.1124392,0.,0.3048909,0.,-0.038
 9304,0.,-0.0816971,-0.0988497,0.,0.0626243,0.,0.3048909,0.,-0.0108845,
 0.,0.2132392\Polar=9.1261171,0.,6.1621567,-0.95942,0.,9.7868267\PG=C02
 V [C2(N1),SGV(H2)]\NImag=0\\0.41479988,0.,0.00668230,-0.06918751,0.,0.
 46244622,-0.03569178,0.,-0.05030499,0.03988008,0.,-0.00334115,0.,0.,0.
 00177650,0.00124478,0.,-0.40293128,0.00782152,0.,0.41862603,-0.3791081
 0,0.,0.11949250,-0.00418830,0.,-0.00906630,0.38329640,0.,-0.00334115,0
 .,0.,0.00156465,0.,0.,0.00177650,0.06794273,0.,-0.05951495,0.04248347,
 0.,-0.01569475,-0.11042621,0.,0.07520970\\0.00000142,0.,0.00000101,-0.
 00000504,0.,0.00000557,0.00000362,0.,-0.00000658\\\@


 Time has a wonderful way of weeding out the trivial.
                                -- Richard Ben Sapir
 Job cpu time:  0 days  0 hours  0 minutes 11.7 seconds.
 File lengths (MBytes):  RWF=      5 Int=      0 D2E=      0 Chk=      1 Scr=      1
 Normal termination of Gaussian 09 at Fri Apr 25 16:34:21 2014.
************
total 304
drwxrwxr-x 2 henon henon   4096 25 avril 16:34 .
drwxrwxr-x 3 henon henon   4096 25 avril 16:34 ..
-rw-r--r-- 1 henon henon    140 25 avril 16:34 nh2.inp
-rw-rw-r-- 1 henon henon 297804 25 avril 16:34 nh2.out
Run on 4 cores
romeo149
************
