total 12
drwxrwxr-x 2 henon henon 4096 15 avril 17:23 .
drwxrwxr-x 3 henon henon 4096 15 avril 17:23 ..
-rw-rw-r-- 1 henon henon  191 15 avril 17:23 h2.inp
-rw-rw-r-- 1 henon henon    0 15 avril 17:23 h2.out
 Entering Gaussian System, Link 0=g09
 Initial command:
 /home/projets/algogen/g09.D01/g09/l1.exe "/scratch_l/henon/h2_6928/Gau-6938.inp" -scrdir="/scratch_l/henon/h2_6928/"
 Entering Link 1 = /home/projets/algogen/g09.D01/g09/l1.exe PID=      6939.
  
 Copyright (c) 1988,1990,1992,1993,1995,1998,2003,2009,2013,
            Gaussian, Inc.  All Rights Reserved.
  
 This is part of the Gaussian(R) 09 program.  It is based on
 the Gaussian(R) 03 system (copyright 2003, Gaussian, Inc.),
 the Gaussian(R) 98 system (copyright 1998, Gaussian, Inc.),
 the Gaussian(R) 94 system (copyright 1995, Gaussian, Inc.),
 the Gaussian 92(TM) system (copyright 1992, Gaussian, Inc.),
 the Gaussian 90(TM) system (copyright 1990, Gaussian, Inc.),
 the Gaussian 88(TM) system (copyright 1988, Gaussian, Inc.),
 the Gaussian 86(TM) system (copyright 1986, Carnegie Mellon
 University), and the Gaussian 82(TM) system (copyright 1983,
 Carnegie Mellon University). Gaussian is a federally registered
 trademark of Gaussian, Inc.
  
 This software contains proprietary and confidential information,
 including trade secrets, belonging to Gaussian, Inc.
  
 This software is provided under written license and may be
 used, copied, transmitted, or stored only in accord with that
 written license.
  
 The following legend is applicable only to US Government
 contracts under FAR:
  
                    RESTRICTED RIGHTS LEGEND
  
 Use, reproduction and disclosure by the US Government is
 subject to restrictions as set forth in subparagraphs (a)
 and (c) of the Commercial Computer Software - Restricted
 Rights clause in FAR 52.227-19.
  
 Gaussian, Inc.
 340 Quinnipiac St., Bldg. 40, Wallingford CT 06492
  
  
 ---------------------------------------------------------------
 Warning -- This program may not be used in any manner that
 competes with the business of Gaussian, Inc. or will provide
 assistance to any competitor of Gaussian, Inc.  The licensee
 of this program is prohibited from giving any competitor of
 Gaussian, Inc. access to this program.  By using this program,
 the user acknowledges that Gaussian, Inc. is engaged in the
 business of creating and licensing software in the field of
 computational chemistry and represents and warrants to the
 licensee that it is not a competitor of Gaussian, Inc. and that
 it will not use this program in any manner prohibited above.
 ---------------------------------------------------------------
  

 Cite this work as:
 Gaussian 09, Revision D.01,
 M. J. Frisch, G. W. Trucks, H. B. Schlegel, G. E. Scuseria, 
 M. A. Robb, J. R. Cheeseman, G. Scalmani, V. Barone, B. Mennucci, 
 G. A. Petersson, H. Nakatsuji, M. Caricato, X. Li, H. P. Hratchian, 
 A. F. Izmaylov, J. Bloino, G. Zheng, J. L. Sonnenberg, M. Hada, 
 M. Ehara, K. Toyota, R. Fukuda, J. Hasegawa, M. Ishida, T. Nakajima, 
 Y. Honda, O. Kitao, H. Nakai, T. Vreven, J. A. Montgomery, Jr., 
 J. E. Peralta, F. Ogliaro, M. Bearpark, J. J. Heyd, E. Brothers, 
 K. N. Kudin, V. N. Staroverov, T. Keith, R. Kobayashi, J. Normand, 
 K. Raghavachari, A. Rendell, J. C. Burant, S. S. Iyengar, J. Tomasi, 
 M. Cossi, N. Rega, J. M. Millam, M. Klene, J. E. Knox, J. B. Cross, 
 V. Bakken, C. Adamo, J. Jaramillo, R. Gomperts, R. E. Stratmann, 
 O. Yazyev, A. J. Austin, R. Cammi, C. Pomelli, J. W. Ochterski, 
 R. L. Martin, K. Morokuma, V. G. Zakrzewski, G. A. Voth, 
 P. Salvador, J. J. Dannenberg, S. Dapprich, A. D. Daniels, 
 O. Farkas, J. B. Foresman, J. V. Ortiz, J. Cioslowski, 
 and D. J. Fox, Gaussian, Inc., Wallingford CT, 2013.
 
 ******************************************
 Gaussian 09:  ES64L-G09RevD.01 24-Apr-2013
                15-Apr-2016 
 ******************************************
 %NPROC=1
 Will use up to    1 processors via shared memory.
 %MEM=100MW
 ------------------------------------------
 #P HF 6-31G* OPT FREQ # GFINPUT IOP(6/7=3)
 ------------------------------------------
 1/18=20,19=15,38=1/1,3;
 2/9=110,12=2,17=6,18=5,40=1/2;
 3/5=1,6=6,7=1,11=9,16=1,24=10,25=1,30=1,71=1/1,2,3;
 4//1;
 5/5=2,38=5/2;
 6/7=3,8=2,9=2,10=2,28=1/1;
 7//1,2,3,16;
 1/18=20,19=15/3(2);
 2/9=110/2;
 99//99;
 2/9=110/2;
 3/5=1,6=6,7=1,11=9,16=1,25=1,30=1,71=1/1,2,3;
 4/5=5,16=3,69=1/1;
 5/5=2,38=5/2;
 7//1,2,3,16;
 1/18=20,19=15/3(-5);
 2/9=110/2;
 6/7=3,8=2,9=2,10=2,19=2,28=1/1;
 99/9=1/99;
 Leave Link    1 at Fri Apr 15 17:23:31 2016, MaxMem=   104857600 cpu:         0.0
 (Enter /home/projets/algogen/g09.D01/g09/l101.exe)
 -----------
 equilibrium
 -----------
 Symbolic Z-matrix:
 Charge =  0 Multiplicity = 1
 1                     0.        1.        0. 
 1                     0.        2.        0.2 
 
 Add virtual bond connecting atoms H2         and H1         Dist= 1.93D+00.
 NAtoms=      2 NQM=        2 NQMF=       0 NMMI=      0 NMMIF=      0
                NMic=       0 NMicF=      0.
                    Isotopes and Nuclear Properties:
 (Nuclear quadrupole moments (NQMom) in fm**2, nuclear magnetic moments (NMagM)
  in nuclear magnetons)

  Atom         1           2
 IAtWgt=           1           1
 AtmWgt=   1.0078250   1.0078250
 NucSpn=           1           1
 AtZEff=   0.0000000   0.0000000
 NQMom=    0.0000000   0.0000000
 NMagM=    2.7928460   2.7928460
 AtZNuc=   1.0000000   1.0000000
 Leave Link  101 at Fri Apr 15 17:23:31 2016, MaxMem=   104857600 cpu:         0.1
 (Enter /home/projets/algogen/g09.D01/g09/l103.exe)

 GradGradGradGradGradGradGradGradGradGradGradGradGradGradGradGradGradGrad
 Berny optimization.
 Initialization pass.
                           ----------------------------
                           !    Initial Parameters    !
                           ! (Angstroms and Degrees)  !
 --------------------------                            --------------------------
 ! Name  Definition              Value          Derivative Info.                !
 --------------------------------------------------------------------------------
 ! R1    R(1,2)                  1.0198         estimate D2E/DX2                !
 --------------------------------------------------------------------------------
 Trust Radius=3.00D-01 FncErr=1.00D-07 GrdErr=1.00D-07
 Number of steps in this run=     20 maximum allowed number of steps=    100.
 GradGradGradGradGradGradGradGradGradGradGradGradGradGradGradGradGradGrad

 Leave Link  103 at Fri Apr 15 17:23:31 2016, MaxMem=   104857600 cpu:         0.0
 (Enter /home/projets/algogen/g09.D01/g09/l202.exe)
                          Input orientation:                          
 ---------------------------------------------------------------------
 Center     Atomic      Atomic             Coordinates (Angstroms)
 Number     Number       Type             X           Y           Z
 ---------------------------------------------------------------------
      1          1           0        0.000000    1.000000    0.000000
      2          1           0        0.000000    2.000000    0.200000
 ---------------------------------------------------------------------
 Stoichiometry    H2
 Framework group  D*H[C*(H.H)]
 Deg. of freedom     1
 Full point group                 D*H     NOp   8
 Largest Abelian subgroup         D2H     NOp   8
 Largest concise Abelian subgroup C2      NOp   2
                         Standard orientation:                         
 ---------------------------------------------------------------------
 Center     Atomic      Atomic             Coordinates (Angstroms)
 Number     Number       Type             X           Y           Z
 ---------------------------------------------------------------------
      1          1           0        0.000000    0.000000    0.509902
      2          1           0        0.000000    0.000000   -0.509902
 ---------------------------------------------------------------------
 Rotational constants (GHZ):      0.0000000    964.3367313    964.3367313
 Leave Link  202 at Fri Apr 15 17:23:31 2016, MaxMem=   104857600 cpu:         0.0
 (Enter /home/projets/algogen/g09.D01/g09/l301.exe)
 Standard basis: 6-31G(d) (6D, 7F)
 Ernie: Thresh=  0.10000D-02 Tol=  0.10000D-05 Strict=F.
 AO basis set in the form of general basis input (Overlap normalization):
      1 0
 S   3 1.00       0.000000000000
      0.1873113696D+02  0.3349460434D-01
      0.2825394365D+01  0.2347269535D+00
      0.6401216923D+00  0.8137573261D+00
 S   1 1.00       0.000000000000
      0.1612777588D+00  0.1000000000D+01
 ****
      2 0
 S   3 1.00       0.000000000000
      0.1873113696D+02  0.3349460434D-01
      0.2825394365D+01  0.2347269535D+00
      0.6401216923D+00  0.8137573261D+00
 S   1 1.00       0.000000000000
      0.1612777588D+00  0.1000000000D+01
 ****

 There are     2 symmetry adapted cartesian basis functions of AG  symmetry.
 There are     0 symmetry adapted cartesian basis functions of B1G symmetry.
 There are     0 symmetry adapted cartesian basis functions of B2G symmetry.
 There are     0 symmetry adapted cartesian basis functions of B3G symmetry.
 There are     0 symmetry adapted cartesian basis functions of AU  symmetry.
 There are     2 symmetry adapted cartesian basis functions of B1U symmetry.
 There are     0 symmetry adapted cartesian basis functions of B2U symmetry.
 There are     0 symmetry adapted cartesian basis functions of B3U symmetry.
 There are     2 symmetry adapted basis functions of AG  symmetry.
 There are     0 symmetry adapted basis functions of B1G symmetry.
 There are     0 symmetry adapted basis functions of B2G symmetry.
 There are     0 symmetry adapted basis functions of B3G symmetry.
 There are     0 symmetry adapted basis functions of AU  symmetry.
 There are     2 symmetry adapted basis functions of B1U symmetry.
 There are     0 symmetry adapted basis functions of B2U symmetry.
 There are     0 symmetry adapted basis functions of B3U symmetry.
     4 basis functions,     8 primitive gaussians,     4 cartesian basis functions
     1 alpha electrons        1 beta electrons
       nuclear repulsion energy         0.5189009448 Hartrees.
 IExCor=    0 DFT=F Ex=HF Corr=None ExCW=0 ScaHFX=  1.000000
 ScaDFX=  1.000000  1.000000  1.000000  1.000000 ScalE2=  1.000000  1.000000
 IRadAn=      0 IRanWt=     -1 IRanGd=            0 ICorTp=0 IEmpDi=  4
 NAtoms=    2 NActive=    2 NUniq=    1 SFac= 4.00D+00 NAtFMM=   60 NAOKFM=F Big=F
 Integral buffers will be    131072 words long.
 Raffenetti 1 integral format.
 Two-electron integral symmetry is turned on.
 Leave Link  301 at Fri Apr 15 17:23:31 2016, MaxMem=   104857600 cpu:         0.0
 (Enter /home/projets/algogen/g09.D01/g09/l302.exe)
 NPDir=0 NMtPBC=     1 NCelOv=     1 NCel=       1 NClECP=     1 NCelD=      1
         NCelK=      1 NCelE2=     1 NClLst=     1 CellRange=     0.0.
 One-electron integrals computed using PRISM.
 One-electron integral symmetry used in STVInt
 NBasis=     4 RedAO= T EigKep=  2.15D-01  NBF=     2     0     0     0     0     2     0     0
 NBsUse=     4 1.00D-06 EigRej= -1.00D+00 NBFU=     2     0     0     0     0     2     0     0
 Leave Link  302 at Fri Apr 15 17:23:31 2016, MaxMem=   104857600 cpu:         0.0
 (Enter /home/projets/algogen/g09.D01/g09/l303.exe)
 DipDrv:  MaxL=1.
 Leave Link  303 at Fri Apr 15 17:23:31 2016, MaxMem=   104857600 cpu:         0.0
 (Enter /home/projets/algogen/g09.D01/g09/l401.exe)
 ExpMin= 1.61D-01 ExpMax= 1.87D+01 ExpMxC= 1.87D+01 IAcc=1 IRadAn=         1 AccDes= 0.00D+00
 Harris functional with IExCor=  205 and IRadAn=       1 diagonalized for initial guess.
 HarFok:  IExCor=  205 AccDes= 0.00D+00 IRadAn=         1 IDoV= 1 UseB2=F ITyADJ=14
 ICtDFT=  3500011 ScaDFX=  1.000000  1.000000  1.000000  1.000000
 FoFCou: FMM=F IPFlag=           0 FMFlag=      100000 FMFlg1=           0
         NFxFlg=           0 DoJE=T BraDBF=F KetDBF=T FulRan=T
         wScrn=  0.000000 ICntrl=     500 IOpCl=  0 I1Cent=   200000004 NGrid=           0
         NMat0=    1 NMatS0=      1 NMatT0=    0 NMatD0=    1 NMtDS0=    0 NMtDT0=    0
 Petite list used in FoFCou.
 Harris En= -1.14700517983632    
 JPrj=0 DoOrth=F DoCkMO=F.
 Initial guess orbital symmetries:
       Occupied  (SGG)
       Virtual   (SGU) (SGG) (SGU)
 The electronic state of the initial guess is 1-SGG.
 Leave Link  401 at Fri Apr 15 17:23:31 2016, MaxMem=   104857600 cpu:         0.0
 (Enter /home/projets/algogen/g09.D01/g09/l502.exe)
 Closed shell SCF:
 Using DIIS extrapolation, IDIIS=  1040.
 Integral symmetry usage will be decided dynamically.
 Keep R1 ints in memory in symmetry-blocked form, NReq=821684.
 IVT=       20197 IEndB=       20197 NGot=   104857600 MDV=   104837133
 LenX=   104837133 LenY=   104836251
 Requested convergence on RMS density matrix=1.00D-08 within 128 cycles.
 Requested convergence on MAX density matrix=1.00D-06.
 Requested convergence on             energy=1.00D-06.
 No special actions if energy rises.
 FoFCou: FMM=F IPFlag=           0 FMFlag=           0 FMFlg1=           0
         NFxFlg=           0 DoJE=F BraDBF=F KetDBF=F FulRan=T
         wScrn=  0.000000 ICntrl=     600 IOpCl=  0 I1Cent=           0 NGrid=           0
         NMat0=    1 NMatS0=     10 NMatT0=    0 NMatD0=    1 NMtDS0=    0 NMtDT0=    0
 Petite list used in FoFCou.

 Cycle   1  Pass 1  IDiag  1:
 E= -1.09008646966218    
 DIIS: error= 1.26D-02 at cycle   1 NSaved=   1.
 NSaved= 1 IEnMin= 1 EnMin= -1.09008646966218     IErMin= 1 ErrMin= 1.26D-02
 ErrMax= 1.26D-02  0.00D+00 EMaxC= 1.00D-01 BMatC= 6.40D-04 BMatP= 6.40D-04
 IDIUse=3 WtCom= 8.74D-01 WtEn= 1.26D-01
 Coeff-Com:  0.100D+01
 Coeff-En:   0.100D+01
 Coeff:      0.100D+01
 Gap=     0.693 Goal=   None    Shift=    0.000
 GapD=    0.693 DampG=2.000 DampE=0.500 DampFc=1.0000 IDamp=-1.
 RMSDP=6.15D-03 MaxDP=9.04D-03              OVMax= 0.00D+00

 Cycle   2  Pass 1  IDiag  1:
 E= -1.09111579648692     Delta-E=       -0.001029326825 Rises=F Damp=F
 DIIS: error= 1.96D-03 at cycle   2 NSaved=   2.
 NSaved= 2 IEnMin= 2 EnMin= -1.09111579648692     IErMin= 2 ErrMin= 1.96D-03
 ErrMax= 1.96D-03  0.00D+00 EMaxC= 1.00D-01 BMatC= 1.54D-05 BMatP= 6.40D-04
 IDIUse=3 WtCom= 9.80D-01 WtEn= 1.96D-02
 Coeff-Com: -0.183D+00 0.118D+01
 Coeff-En:   0.000D+00 0.100D+01
 Coeff:     -0.180D+00 0.118D+01
 Gap=     0.686 Goal=   None    Shift=    0.000
 RMSDP=1.12D-03 MaxDP=1.61D-03 DE=-1.03D-03 OVMax= 0.00D+00

 Cycle   3  Pass 1  IDiag  1:
 E= -1.09114110862087     Delta-E=       -0.000025312134 Rises=F Damp=F
 DIIS: error= 5.27D-06 at cycle   3 NSaved=   3.
 NSaved= 3 IEnMin= 3 EnMin= -1.09114110862087     IErMin= 3 ErrMin= 5.27D-06
 ErrMax= 5.27D-06  0.00D+00 EMaxC= 1.00D-01 BMatC= 1.11D-10 BMatP= 1.54D-05
 IDIUse=1 WtCom= 1.00D+00 WtEn= 0.00D+00
 Large coefficients: NSaved=  3 BigCof=    0.00 CofMax=   10.00 Det=-3.39D-21
 Inversion failed.  Reducing to  2 matrices.
 Coeff-Com: -0.270D-02 0.100D+01
 Coeff:     -0.270D-02 0.100D+01
 Gap=     0.686 Goal=   None    Shift=    0.000
 RMSDP=3.03D-06 MaxDP=4.32D-06 DE=-2.53D-05 OVMax= 0.00D+00

 Cycle   4  Pass 1  IDiag  1:
 E= -1.09114110880412     Delta-E=       -0.000000000183 Rises=F Damp=F
 DIIS: error= 2.68D-10 at cycle   4 NSaved=   3.
 NSaved= 3 IEnMin= 3 EnMin= -1.09114110880412     IErMin= 3 ErrMin= 2.68D-10
 ErrMax= 2.68D-10  0.00D+00 EMaxC= 1.00D-01 BMatC= 2.88D-19 BMatP= 1.11D-10
 IDIUse=1 WtCom= 1.00D+00 WtEn= 0.00D+00
 Large coefficients: NSaved=  3 BigCof=    0.00 CofMax=   10.00 Det=-1.29D-26
 Inversion failed.  Reducing to  2 matrices.
 Coeff-Com:  0.509D-04 0.100D+01
 Coeff:      0.509D-04 0.100D+01
 Gap=     0.686 Goal=   None    Shift=    0.000
 RMSDP=1.54D-10 MaxDP=2.20D-10 DE=-1.83D-10 OVMax= 0.00D+00

 SCF Done:  E(RHF) =  -1.09114110880     A.U. after    4 cycles
            NFock=  4  Conv=0.15D-09     -V/T= 2.1953
 KE= 9.128270672979D-01 PE=-3.086736225334D+00 EE= 5.638671044726D-01
 Leave Link  502 at Fri Apr 15 17:23:31 2016, MaxMem=   104857600 cpu:         0.0
 (Enter /home/projets/algogen/g09.D01/g09/l601.exe)
 Copying SCF densities to generalized density rwf, IOpCl= 0 IROHF=0.

 **********************************************************************

            Population analysis using the SCF density.

 **********************************************************************

 Orbital symmetries:
       Occupied  (SGG)
       Virtual   (SGU) (SGG) (SGU)
 The electronic state is 1-SGG.
 Alpha  occ. eigenvalues --   -0.52309
 Alpha virt. eigenvalues --    0.16243   0.91379   1.15032
     Molecular Orbital Coefficients:
                           1         2         3         4
                       (SGG)--O  (SGU)--V  (SGG)--V  (SGU)--V
     Eigenvalues --    -0.52309   0.16243   0.91379   1.15032
   1 1   H  1S          0.28461   0.17070   0.87334  -0.97583
   2        2S          0.33585   1.20149  -0.69889   1.19808
   3 2   H  1S          0.28461  -0.17070   0.87334   0.97583
   4        2S          0.33585  -1.20149  -0.69889  -1.19808
          Condensed to atoms (all electrons):
               1          2
     1  H    0.639291   0.360709
     2  H    0.360709   0.639291
 Mulliken charges:
               1
     1  H    0.000000
     2  H    0.000000
 Sum of Mulliken charges =   0.00000
 Mulliken charges with hydrogens summed into heavy atoms:
               1
 Electronic spatial extent (au):  <R**2>=              6.7339
 Charge=              0.0000 electrons
 Dipole moment (field-independent basis, Debye):
    X=              0.0000    Y=              0.0000    Z=              0.0000  Tot=              0.0000
 Quadrupole moment (field-independent basis, Debye-Ang):
   XX=             -2.4328   YY=             -2.4328   ZZ=             -1.6939
   XY=              0.0000   XZ=              0.0000   YZ=              0.0000
 Traceless Quadrupole moment (field-independent basis, Debye-Ang):
   XX=             -0.2463   YY=             -0.2463   ZZ=              0.4926
   XY=              0.0000   XZ=              0.0000   YZ=              0.0000
 Octapole moment (field-independent basis, Debye-Ang**2):
  XXX=              0.0000  YYY=              0.0000  ZZZ=              0.0000  XYY=              0.0000
  XXY=              0.0000  XXZ=              0.0000  XZZ=              0.0000  YZZ=              0.0000
  YYZ=              0.0000  XYZ=              0.0000
 Hexadecapole moment (field-independent basis, Debye-Ang**3):
 XXXX=             -2.5047 YYYY=             -2.5047 ZZZZ=             -4.7058 XXXY=              0.0000
 XXXZ=              0.0000 YYYX=              0.0000 YYYZ=              0.0000 ZZZX=              0.0000
 ZZZY=              0.0000 XXYY=             -0.8349 XXZZ=             -1.2376 YYZZ=             -1.2376
 XXYZ=              0.0000 YYXZ=              0.0000 ZZXY=              0.0000
 N-N= 5.189009447594D-01 E-N=-3.086736225569D+00  KE= 9.128270672979D-01
 Symmetry AG   KE= 9.128270672979D-01
 Symmetry B1G  KE= 0.000000000000D+00
 Symmetry B2G  KE= 0.000000000000D+00
 Symmetry B3G  KE= 0.000000000000D+00
 Symmetry AU   KE= 0.000000000000D+00
 Symmetry B1U  KE= 0.000000000000D+00
 Symmetry B2U  KE= 0.000000000000D+00
 Symmetry B3U  KE= 0.000000000000D+00
 Orbital energies and kinetic energies (alpha):
                                 1                 2
   1         (SGG)--O         -0.523087          0.456414
   2         (SGU)--V          0.162425          0.489449
   3         (SGG)--V          0.913794          1.638121
   4         (SGU)--V          1.150317          2.191843
 Total kinetic energy from orbitals= 9.128270672979D-01
 No NMR shielding tensors so no spin-rotation constants.
 Leave Link  601 at Fri Apr 15 17:23:31 2016, MaxMem=   104857600 cpu:         0.1
 (Enter /home/projets/algogen/g09.D01/g09/l701.exe)
 Compute integral first derivatives.
 ... and contract with generalized density number  0.
 Leave Link  701 at Fri Apr 15 17:23:31 2016, MaxMem=   104857600 cpu:         0.1
 (Enter /home/projets/algogen/g09.D01/g09/l702.exe)
 L702 exits ... SP integral derivatives will be done elsewhere.
 Leave Link  702 at Fri Apr 15 17:23:31 2016, MaxMem=   104857600 cpu:         0.0
 (Enter /home/projets/algogen/g09.D01/g09/l703.exe)
 Compute integral first derivatives, UseDBF=F ICtDFT=           0.
 Integral derivatives from FoFJK, PRISM(SPDF).
 Calling FoFJK, ICntrl=      2127 FMM=F ISym2X=1 I1Cent= 0 IOpClX= 0 NMat=1 NMatS=1 NMatT=0.
 FoFJK:  IHMeth= 1 ICntrl=    2127 DoSepK=F KAlg= 0 I1Cent=   0 FoldK=F
 IRaf=         0 NMat=   1 IRICut=       1 DoRegI=T DoRafI=F ISym2E= 1.
 FoFCou: FMM=F IPFlag=           0 FMFlag=      100000 FMFlg1=         800
         NFxFlg=           0 DoJE=F BraDBF=F KetDBF=F FulRan=T
         wScrn=  0.000000 ICntrl=    2127 IOpCl=  0 I1Cent=           0 NGrid=           0
         NMat0=    1 NMatS0=      1 NMatT0=    0 NMatD0=    1 NMtDS0=    0 NMtDT0=    0
 Petite list used in FoFCou.
 Leave Link  703 at Fri Apr 15 17:23:31 2016, MaxMem=   104857600 cpu:         0.0
 (Enter /home/projets/algogen/g09.D01/g09/l716.exe)
 Dipole        =-1.97215226D-31 4.93038066D-32-1.11022302D-16
 ***** Axes restored to original set *****
 -------------------------------------------------------------------
 Center     Atomic                   Forces (Hartrees/Bohr)
 Number     Number              X              Y              Z
 -------------------------------------------------------------------
      1        1           0.000000000    0.097063699    0.019412740
      2        1           0.000000000   -0.097063699   -0.019412740
 -------------------------------------------------------------------
 Cartesian Forces:  Max     0.097063699 RMS     0.057149558
 Leave Link  716 at Fri Apr 15 17:23:31 2016, MaxMem=   104857600 cpu:         0.0
 (Enter /home/projets/algogen/g09.D01/g09/l103.exe)

 GradGradGradGradGradGradGradGradGradGradGradGradGradGradGradGradGradGrad
 Berny optimization.
 FormGI is forming the generalized inverse of G from B-inverse, IUseBI=4.
 Internal  Forces:  Max     0.098985939 RMS     0.098985939
 Search for a local minimum.
 Step number   1 out of a maximum of   20
 All quantities printed in internal units (Hartrees-Bohrs-Radians)
 RMS Force = .98986D-01 SwitMx=.10000D-02 MixMth= 1
 Mixed Optimization -- RFO/linear search
 Second derivative matrix not updated -- first step.
 The second derivative matrix:
                          R1
           R1           0.16943
 ITU=  0
     Eigenvalues ---    0.16943
 RFO step:  Lambda=-4.55732902D-02 EMin= 1.69425804D-01
 Linear search not attempted -- first point.
 Maximum step size (   0.300) exceeded in Quadratic search.
    -- Step size scaled by   0.652
 Iteration  1 RMS(Cart)=  0.14142136 RMS(Int)=  0.10000000
 Iteration  2 RMS(Cart)=  0.07071068 RMS(Int)=  0.00000000
 Iteration  3 RMS(Cart)=  0.00000000 RMS(Int)=  0.00000000
 ITry= 1 IFail=0 DXMaxC= 1.47D-01 DCOld= 1.00D+10 DXMaxT= 3.00D-01 DXLimC= 3.00D+00 Rises=F
 ClnCor:  largest displacement from symmetrization is 5.63D-17 for atom     2.
 Variable       Old X    -DE/DX   Delta X   Delta X   Delta X     New X
                                 (Linear)    (Quad)   (Total)
    R1        1.92715  -0.09899   0.00000  -0.30000  -0.30000   1.62715
         Item               Value     Threshold  Converged?
 Maximum Force            0.098986     0.000450     NO 
 RMS     Force            0.098986     0.000300     NO 
 Maximum Displacement     0.147087     0.001800     NO 
 RMS     Displacement     0.212132     0.001200     NO 
 Predicted change in Energy=-2.207162D-02
 Lowest energy point so far.  Saving SCF results.
 GradGradGradGradGradGradGradGradGradGradGradGradGradGradGradGradGradGrad

 Leave Link  103 at Fri Apr 15 17:23:31 2016, MaxMem=   104857600 cpu:         0.0
 (Enter /home/projets/algogen/g09.D01/g09/l202.exe)
                          Input orientation:                          
 ---------------------------------------------------------------------
 Center     Atomic      Atomic             Coordinates (Angstroms)
 Number     Number       Type             X           Y           Z
 ---------------------------------------------------------------------
      1          1           0        0.000000    1.077835    0.015567
      2          1           0        0.000000    1.922165    0.184433
 ---------------------------------------------------------------------
 Stoichiometry    H2
 Framework group  D*H[C*(H.H)]
 Deg. of freedom     1
 Full point group                 D*H     NOp   8
 RotChk:  IX=0 Diff= 1.42D-16
 Largest Abelian subgroup         D2H     NOp   8
 Largest concise Abelian subgroup C2      NOp   2
                         Standard orientation:                         
 ---------------------------------------------------------------------
 Center     Atomic      Atomic             Coordinates (Angstroms)
 Number     Number       Type             X           Y           Z
 ---------------------------------------------------------------------
      1          1           0        0.000000    0.000000    0.430525
      2          1           0        0.000000    0.000000   -0.430525
 ---------------------------------------------------------------------
 Rotational constants (GHZ):      0.0000000   1352.7095613   1352.7095613
 Leave Link  202 at Fri Apr 15 17:23:31 2016, MaxMem=   104857600 cpu:         0.0
 (Enter /home/projets/algogen/g09.D01/g09/l301.exe)
 Standard basis: 6-31G(d) (6D, 7F)
 Ernie: Thresh=  0.10000D-02 Tol=  0.10000D-05 Strict=F.
 There are     2 symmetry adapted cartesian basis functions of AG  symmetry.
 There are     0 symmetry adapted cartesian basis functions of B1G symmetry.
 There are     0 symmetry adapted cartesian basis functions of B2G symmetry.
 There are     0 symmetry adapted cartesian basis functions of B3G symmetry.
 There are     0 symmetry adapted cartesian basis functions of AU  symmetry.
 There are     2 symmetry adapted cartesian basis functions of B1U symmetry.
 There are     0 symmetry adapted cartesian basis functions of B2U symmetry.
 There are     0 symmetry adapted cartesian basis functions of B3U symmetry.
 There are     2 symmetry adapted basis functions of AG  symmetry.
 There are     0 symmetry adapted basis functions of B1G symmetry.
 There are     0 symmetry adapted basis functions of B2G symmetry.
 There are     0 symmetry adapted basis functions of B3G symmetry.
 There are     0 symmetry adapted basis functions of AU  symmetry.
 There are     2 symmetry adapted basis functions of B1U symmetry.
 There are     0 symmetry adapted basis functions of B2U symmetry.
 There are     0 symmetry adapted basis functions of B3U symmetry.
     4 basis functions,     8 primitive gaussians,     4 cartesian basis functions
     1 alpha electrons        1 beta electrons
       nuclear repulsion energy         0.6145714578 Hartrees.
 IExCor=    0 DFT=F Ex=HF Corr=None ExCW=0 ScaHFX=  1.000000
 ScaDFX=  1.000000  1.000000  1.000000  1.000000 ScalE2=  1.000000  1.000000
 IRadAn=      0 IRanWt=     -1 IRanGd=            0 ICorTp=0 IEmpDi=  4
 NAtoms=    2 NActive=    2 NUniq=    1 SFac= 4.00D+00 NAtFMM=   60 NAOKFM=F Big=F
 Integral buffers will be    131072 words long.
 Raffenetti 1 integral format.
 Two-electron integral symmetry is turned on.
 Leave Link  301 at Fri Apr 15 17:23:31 2016, MaxMem=   104857600 cpu:         0.0
 (Enter /home/projets/algogen/g09.D01/g09/l302.exe)
 NPDir=0 NMtPBC=     1 NCelOv=     1 NCel=       1 NClECP=     1 NCelD=      1
         NCelK=      1 NCelE2=     1 NClLst=     1 CellRange=     0.0.
 One-electron integrals computed using PRISM.
 One-electron integral symmetry used in STVInt
 NBasis=     4 RedAO= T EigKep=  1.71D-01  NBF=     2     0     0     0     0     2     0     0
 NBsUse=     4 1.00D-06 EigRej= -1.00D+00 NBFU=     2     0     0     0     0     2     0     0
 Leave Link  302 at Fri Apr 15 17:23:31 2016, MaxMem=   104857600 cpu:         0.1
 (Enter /home/projets/algogen/g09.D01/g09/l303.exe)
 DipDrv:  MaxL=1.
 Leave Link  303 at Fri Apr 15 17:23:31 2016, MaxMem=   104857600 cpu:         0.0
 (Enter /home/projets/algogen/g09.D01/g09/l401.exe)
 Initial guess from the checkpoint file:  "/scratch_l/henon/h2_6928/Gau-6939.chk"
 B after Tr=     0.000000    0.000000    0.000000
         Rot=    1.000000    0.000000    0.000000    0.000000 Ang=   0.00 deg.
 Guess basis will be translated and rotated to current coordinates.
 JPrj=2 DoOrth=T DoCkMO=T.
 Initial guess orbital symmetries:
       Occupied  (SGG)
       Virtual   (SGG) (SGU) (SGU)
 The electronic state of the initial guess is 1-SGG.
 Generating alternative initial guess.
 ExpMin= 1.61D-01 ExpMax= 1.87D+01 ExpMxC= 1.87D+01 IAcc=1 IRadAn=         1 AccDes= 0.00D+00
 Harris functional with IExCor=  205 and IRadAn=       1 diagonalized for initial guess.
 HarFok:  IExCor=  205 AccDes= 0.00D+00 IRadAn=         1 IDoV= 1 UseB2=F ITyADJ=14
 ICtDFT=  3500011 ScaDFX=  1.000000  1.000000  1.000000  1.000000
 FoFCou: FMM=F IPFlag=           0 FMFlag=      100000 FMFlg1=           0
         NFxFlg=           0 DoJE=T BraDBF=F KetDBF=T FulRan=T
         wScrn=  0.000000 ICntrl=     500 IOpCl=  0 I1Cent=   200000004 NGrid=           0
         NMat0=    1 NMatS0=      1 NMatT0=    0 NMatD0=    1 NMtDS0=    0 NMtDT0=    0
 Petite list used in FoFCou.
 Harris En= -1.17050072517386    
 Leave Link  401 at Fri Apr 15 17:23:31 2016, MaxMem=   104857600 cpu:         0.1
 (Enter /home/projets/algogen/g09.D01/g09/l502.exe)
 Closed shell SCF:
 Using DIIS extrapolation, IDIIS=  1040.
 Integral symmetry usage will be decided dynamically.
 Keep R1 ints in memory in symmetry-blocked form, NReq=821698.
 IVT=       20197 IEndB=       20197 NGot=   104857600 MDV=   104837133
 LenX=   104837133 LenY=   104836251
 Requested convergence on RMS density matrix=1.00D-08 within 128 cycles.
 Requested convergence on MAX density matrix=1.00D-06.
 Requested convergence on             energy=1.00D-06.
 No special actions if energy rises.
 FoFCou: FMM=F IPFlag=           0 FMFlag=           0 FMFlg1=           0
         NFxFlg=           0 DoJE=F BraDBF=F KetDBF=F FulRan=T
         wScrn=  0.000000 ICntrl=     600 IOpCl=  0 I1Cent=           0 NGrid=           0
         NMat0=    1 NMatS0=     10 NMatT0=    0 NMatD0=    1 NMtDS0=    0 NMtDT0=    0
 Petite list used in FoFCou.

 Cycle   1  Pass 1  IDiag  1:
 E= -1.11381693681434    
 DIIS: error= 2.22D-02 at cycle   1 NSaved=   1.
 NSaved= 1 IEnMin= 1 EnMin= -1.11381693681434     IErMin= 1 ErrMin= 2.22D-02
 ErrMax= 2.22D-02  0.00D+00 EMaxC= 1.00D-01 BMatC= 1.98D-03 BMatP= 1.98D-03
 IDIUse=3 WtCom= 7.78D-01 WtEn= 2.22D-01
 Coeff-Com:  0.100D+01
 Coeff-En:   0.100D+01
 Coeff:      0.100D+01
 Recover alternate guess density for next cycle.
 RMSDP=2.05D-02 MaxDP=3.11D-02              OVMax= 0.00D+00

 Cycle   2  Pass 1  IDiag  1:
 E= -1.11563614600366     Delta-E=       -0.001819209189 Rises=F Damp=F
 DIIS: error= 1.49D-02 at cycle   2 NSaved=   2.
 NSaved= 2 IEnMin= 2 EnMin= -1.11563614600366     IErMin= 2 ErrMin= 1.49D-02
 ErrMax= 1.49D-02  0.00D+00 EMaxC= 1.00D-01 BMatC= 8.93D-04 BMatP= 1.98D-03
 IDIUse=3 WtCom= 8.51D-01 WtEn= 1.49D-01
 Coeff-Com:  0.402D+00 0.598D+00
 Coeff-En:   0.000D+00 0.100D+01
 Coeff:      0.342D+00 0.658D+00
 Gap=     1.209 Goal=   None    Shift=    0.000
 RMSDP=8.13D-03 MaxDP=1.28D-02 DE=-1.82D-03 OVMax= 0.00D+00

 Cycle   3  Pass 1  IDiag  1:
 E= -1.11714665401262     Delta-E=       -0.001510508009 Rises=F Damp=F
 DIIS: error= 3.56D-04 at cycle   3 NSaved=   3.
 NSaved= 3 IEnMin= 3 EnMin= -1.11714665401262     IErMin= 3 ErrMin= 3.56D-04
 ErrMax= 3.56D-04  0.00D+00 EMaxC= 1.00D-01 BMatC= 5.07D-07 BMatP= 8.93D-04
 IDIUse=3 WtCom= 9.96D-01 WtEn= 3.56D-03
 Large coefficients: NSaved=  3 BigCof=    0.00 CofMax=   10.00 Det= 2.17D-19
 Inversion failed.  Reducing to  2 matrices.
 Coeff-Com: -0.244D-01 0.102D+01
 Coeff-En:   0.000D+00 0.100D+01
 Coeff:     -0.243D-01 0.102D+01
 Gap=     0.767 Goal=   None    Shift=    0.000
 RMSDP=1.97D-04 MaxDP=3.02D-04 DE=-1.51D-03 OVMax= 0.00D+00

 Cycle   4  Pass 1  IDiag  1:
 E= -1.11714750877741     Delta-E=       -0.000000854765 Rises=F Damp=F
 DIIS: error= 1.36D-07 at cycle   4 NSaved=   3.
 NSaved= 3 IEnMin= 3 EnMin= -1.11714750877741     IErMin= 3 ErrMin= 1.36D-07
 ErrMax= 1.36D-07  0.00D+00 EMaxC= 1.00D-01 BMatC= 7.39D-14 BMatP= 5.07D-07
 IDIUse=1 WtCom= 1.00D+00 WtEn= 0.00D+00
 Large coefficients: NSaved=  3 BigCof=    0.00 CofMax=   10.00 Det=-1.06D-22
 Inversion failed.  Reducing to  2 matrices.
 Coeff-Com:  0.382D-03 0.100D+01
 Coeff:      0.382D-03 0.100D+01
 Gap=     0.767 Goal=   None    Shift=    0.000
 RMSDP=7.51D-08 MaxDP=1.15D-07 DE=-8.55D-07 OVMax= 0.00D+00

 Cycle   5  Pass 1  IDiag  1:
 E= -1.11714750877753     Delta-E=        0.000000000000 Rises=F Damp=F
 DIIS: error= 2.88D-12 at cycle   5 NSaved=   3.
 NSaved= 3 IEnMin= 3 EnMin= -1.11714750877753     IErMin= 3 ErrMin= 2.88D-12
 ErrMax= 2.88D-12  0.00D+00 EMaxC= 1.00D-01 BMatC= 3.31D-23 BMatP= 7.39D-14
 IDIUse=1 WtCom= 1.00D+00 WtEn= 0.00D+00
 Large coefficients: NSaved=  3 BigCof=    0.00 CofMax=   10.00 Det=-2.52D-29
 Inversion failed.  Reducing to  2 matrices.
 Coeff-Com:  0.212D-04 0.100D+01
 Coeff:      0.212D-04 0.100D+01
 Gap=     0.767 Goal=   None    Shift=    0.000
 RMSDP=1.59D-12 MaxDP=2.44D-12 DE=-1.26D-13 OVMax= 0.00D+00

 SCF Done:  E(RHF) =  -1.11714750878     A.U. after    5 cycles
            NFock=  5  Conv=0.16D-11     -V/T= 2.0970
 KE= 1.018345880552D+00 PE=-3.358657738503D+00 EE= 6.085928913944D-01
 Leave Link  502 at Fri Apr 15 17:23:31 2016, MaxMem=   104857600 cpu:         0.0
 (Enter /home/projets/algogen/g09.D01/g09/l701.exe)
 Compute integral first derivatives.
 ... and contract with generalized density number  0.
 Leave Link  701 at Fri Apr 15 17:23:31 2016, MaxMem=   104857600 cpu:         0.1
 (Enter /home/projets/algogen/g09.D01/g09/l702.exe)
 L702 exits ... SP integral derivatives will be done elsewhere.
 Leave Link  702 at Fri Apr 15 17:23:32 2016, MaxMem=   104857600 cpu:         0.0
 (Enter /home/projets/algogen/g09.D01/g09/l703.exe)
 Compute integral first derivatives, UseDBF=F ICtDFT=           0.
 Integral derivatives from FoFJK, PRISM(SPDF).
 Calling FoFJK, ICntrl=      2127 FMM=F ISym2X=1 I1Cent= 0 IOpClX= 0 NMat=1 NMatS=1 NMatT=0.
 FoFJK:  IHMeth= 1 ICntrl=    2127 DoSepK=F KAlg= 0 I1Cent=   0 FoldK=F
 IRaf=         0 NMat=   1 IRICut=       1 DoRegI=T DoRafI=F ISym2E= 1.
 FoFCou: FMM=F IPFlag=           0 FMFlag=      100000 FMFlg1=         800
         NFxFlg=           0 DoJE=F BraDBF=F KetDBF=F FulRan=T
         wScrn=  0.000000 ICntrl=    2127 IOpCl=  0 I1Cent=           0 NGrid=           0
         NMat0=    1 NMatS0=      1 NMatT0=    0 NMatD0=    1 NMtDS0=    0 NMtDT0=    0
 Petite list used in FoFCou.
 Leave Link  703 at Fri Apr 15 17:23:32 2016, MaxMem=   104857600 cpu:         0.0
 (Enter /home/projets/algogen/g09.D01/g09/l716.exe)
 Dipole        =-2.46519033D-32-3.69778549D-32 0.00000000D+00
 ***** Axes restored to original set *****
 -------------------------------------------------------------------
 Center     Atomic                   Forces (Hartrees/Bohr)
 Number     Number              X              Y              Z
 -------------------------------------------------------------------
      1        1           0.000000000    0.067060608    0.013412122
      2        1           0.000000000   -0.067060608   -0.013412122
 -------------------------------------------------------------------
 Cartesian Forces:  Max     0.067060608 RMS     0.039484217
 Leave Link  716 at Fri Apr 15 17:23:32 2016, MaxMem=   104857600 cpu:         0.0
 (Enter /home/projets/algogen/g09.D01/g09/l103.exe)

 GradGradGradGradGradGradGradGradGradGradGradGradGradGradGradGradGradGrad
 Berny optimization.
 Using GEDIIS/GDIIS optimizer.
 Red2BG is reusing G-inverse.
 Internal  Forces:  Max     0.068388670 RMS     0.068388670
 Search for a local minimum.
 Step number   2 out of a maximum of   20
 All quantities printed in internal units (Hartrees-Bohrs-Radians)
 RMS Force = .68389D-01 SwitMx=.10000D-02 MixMth= 1
 Mixed Optimization -- RFO/linear search
 Update second derivatives using D2CorX and points    1    2
 DE= -2.60D-02 DEPred=-2.21D-02 R= 1.18D+00
 TightC=F SS=  1.41D+00  RLast= 3.00D-01 DXNew= 5.0454D-01 9.0000D-01
 Trust test= 1.18D+00 RLast= 3.00D-01 DXMaxT set to 5.05D-01
 The second derivative matrix:
                          R1
           R1           0.10199
 ITU=  1  0
 Use linear search instead of GDIIS.
     Eigenvalues ---    0.10199
 RFO step:  Lambda= 0.00000000D+00 EMin= 1.01990896D-01
 Quartic linear search produced a step of  0.91325.
 Iteration  1 RMS(Cart)=  0.14142136 RMS(Int)=  0.07397521
 Iteration  2 RMS(Cart)=  0.05230837 RMS(Int)=  0.00000000
 Iteration  3 RMS(Cart)=  0.00000000 RMS(Int)=  0.00000000
 ITry= 1 IFail=0 DXMaxC= 1.34D-01 DCOld= 1.00D+10 DXMaxT= 5.05D-01 DXLimC= 3.00D+00 Rises=F
 ClnCor:  largest displacement from symmetrization is 5.60D-17 for atom     2.
 Variable       Old X    -DE/DX   Delta X   Delta X   Delta X     New X
                                 (Linear)    (Quad)   (Total)
    R1        1.62715  -0.06839  -0.27398   0.00000  -0.27398   1.35317
         Item               Value     Threshold  Converged?
 Maximum Force            0.068389     0.000450     NO 
 RMS     Force            0.068389     0.000300     NO 
 Maximum Displacement     0.134327     0.001800     NO 
 RMS     Displacement     0.193730     0.001200     NO 
 Predicted change in Energy=-1.490896D-02
 Lowest energy point so far.  Saving SCF results.
 GradGradGradGradGradGradGradGradGradGradGradGradGradGradGradGradGradGrad

 Leave Link  103 at Fri Apr 15 17:23:32 2016, MaxMem=   104857600 cpu:         0.0
 (Enter /home/projets/algogen/g09.D01/g09/l202.exe)
                          Input orientation:                          
 ---------------------------------------------------------------------
 Center     Atomic      Atomic             Coordinates (Angstroms)
 Number     Number       Type             X           Y           Z
 ---------------------------------------------------------------------
      1          1           0        0.000000    1.148918    0.029784
      2          1           0        0.000000    1.851082    0.170216
 ---------------------------------------------------------------------
 Stoichiometry    H2
 Framework group  D*H[C*(H.H)]
 Deg. of freedom     1
 Full point group                 D*H     NOp   8
 RotChk:  IX=0 Diff= 1.37D-16
 Largest Abelian subgroup         D2H     NOp   8
 Largest concise Abelian subgroup C2      NOp   2
                         Standard orientation:                         
 ---------------------------------------------------------------------
 Center     Atomic      Atomic             Coordinates (Angstroms)
 Number     Number       Type             X           Y           Z
 ---------------------------------------------------------------------
      1          1           0        0.000000    0.000000    0.358035
      2          1           0        0.000000    0.000000   -0.358035
 ---------------------------------------------------------------------
 Rotational constants (GHZ):      0.0000000   1955.9238183   1955.9238183
 Leave Link  202 at Fri Apr 15 17:23:32 2016, MaxMem=   104857600 cpu:         0.0
 (Enter /home/projets/algogen/g09.D01/g09/l301.exe)
 Standard basis: 6-31G(d) (6D, 7F)
 Ernie: Thresh=  0.10000D-02 Tol=  0.10000D-05 Strict=F.
 There are     2 symmetry adapted cartesian basis functions of AG  symmetry.
 There are     0 symmetry adapted cartesian basis functions of B1G symmetry.
 There are     0 symmetry adapted cartesian basis functions of B2G symmetry.
 There are     0 symmetry adapted cartesian basis functions of B3G symmetry.
 There are     0 symmetry adapted cartesian basis functions of AU  symmetry.
 There are     2 symmetry adapted cartesian basis functions of B1U symmetry.
 There are     0 symmetry adapted cartesian basis functions of B2U symmetry.
 There are     0 symmetry adapted cartesian basis functions of B3U symmetry.
 There are     2 symmetry adapted basis functions of AG  symmetry.
 There are     0 symmetry adapted basis functions of B1G symmetry.
 There are     0 symmetry adapted basis functions of B2G symmetry.
 There are     0 symmetry adapted basis functions of B3G symmetry.
 There are     0 symmetry adapted basis functions of AU  symmetry.
 There are     2 symmetry adapted basis functions of B1U symmetry.
 There are     0 symmetry adapted basis functions of B2U symmetry.
 There are     0 symmetry adapted basis functions of B3U symmetry.
     4 basis functions,     8 primitive gaussians,     4 cartesian basis functions
     1 alpha electrons        1 beta electrons
       nuclear repulsion energy         0.7390027840 Hartrees.
 IExCor=    0 DFT=F Ex=HF Corr=None ExCW=0 ScaHFX=  1.000000
 ScaDFX=  1.000000  1.000000  1.000000  1.000000 ScalE2=  1.000000  1.000000
 IRadAn=      0 IRanWt=     -1 IRanGd=            0 ICorTp=0 IEmpDi=  4
 NAtoms=    2 NActive=    2 NUniq=    1 SFac= 4.00D+00 NAtFMM=   60 NAOKFM=F Big=F
 Integral buffers will be    131072 words long.
 Raffenetti 1 integral format.
 Two-electron integral symmetry is turned on.
 Leave Link  301 at Fri Apr 15 17:23:32 2016, MaxMem=   104857600 cpu:         0.0
 (Enter /home/projets/algogen/g09.D01/g09/l302.exe)
 NPDir=0 NMtPBC=     1 NCelOv=     1 NCel=       1 NClECP=     1 NCelD=      1
         NCelK=      1 NCelE2=     1 NClLst=     1 CellRange=     0.0.
 One-electron integrals computed using PRISM.
 One-electron integral symmetry used in STVInt
 NBasis=     4 RedAO= T EigKep=  1.29D-01  NBF=     2     0     0     0     0     2     0     0
 NBsUse=     4 1.00D-06 EigRej= -1.00D+00 NBFU=     2     0     0     0     0     2     0     0
 Leave Link  302 at Fri Apr 15 17:23:32 2016, MaxMem=   104857600 cpu:         0.1
 (Enter /home/projets/algogen/g09.D01/g09/l303.exe)
 DipDrv:  MaxL=1.
 Leave Link  303 at Fri Apr 15 17:23:32 2016, MaxMem=   104857600 cpu:         0.0
 (Enter /home/projets/algogen/g09.D01/g09/l401.exe)
 Initial guess from the checkpoint file:  "/scratch_l/henon/h2_6928/Gau-6939.chk"
 B after Tr=     0.000000    0.000000    0.000000
         Rot=    1.000000    0.000000    0.000000    0.000000 Ang=   0.00 deg.
 Guess basis will be translated and rotated to current coordinates.
 JPrj=2 DoOrth=T DoCkMO=T.
 Initial guess orbital symmetries:
       Occupied  (SGG)
       Virtual   (SGG) (SGU) (SGU)
 The electronic state of the initial guess is 1-SGG.
 Generating alternative initial guess.
 ExpMin= 1.61D-01 ExpMax= 1.87D+01 ExpMxC= 1.87D+01 IAcc=1 IRadAn=         1 AccDes= 0.00D+00
 Harris functional with IExCor=  205 and IRadAn=       1 diagonalized for initial guess.
 HarFok:  IExCor=  205 AccDes= 0.00D+00 IRadAn=         1 IDoV= 1 UseB2=F ITyADJ=14
 ICtDFT=  3500011 ScaDFX=  1.000000  1.000000  1.000000  1.000000
 FoFCou: FMM=F IPFlag=           0 FMFlag=      100000 FMFlg1=           0
         NFxFlg=           0 DoJE=T BraDBF=F KetDBF=T FulRan=T
         wScrn=  0.000000 ICntrl=     500 IOpCl=  0 I1Cent=   200000004 NGrid=           0
         NMat0=    1 NMatS0=      1 NMatT0=    0 NMatD0=    1 NMtDS0=    0 NMtDT0=    0
 Petite list used in FoFCou.
 Harris En= -1.18058529149216    
 Leave Link  401 at Fri Apr 15 17:23:32 2016, MaxMem=   104857600 cpu:         0.1
 (Enter /home/projets/algogen/g09.D01/g09/l502.exe)
 Closed shell SCF:
 Using DIIS extrapolation, IDIIS=  1040.
 Integral symmetry usage will be decided dynamically.
 Keep R1 ints in memory in symmetry-blocked form, NReq=821698.
 IVT=       20197 IEndB=       20197 NGot=   104857600 MDV=   104837133
 LenX=   104837133 LenY=   104836251
 Requested convergence on RMS density matrix=1.00D-08 within 128 cycles.
 Requested convergence on MAX density matrix=1.00D-06.
 Requested convergence on             energy=1.00D-06.
 No special actions if energy rises.
 FoFCou: FMM=F IPFlag=           0 FMFlag=           0 FMFlg1=           0
         NFxFlg=           0 DoJE=F BraDBF=F KetDBF=F FulRan=T
         wScrn=  0.000000 ICntrl=     600 IOpCl=  0 I1Cent=           0 NGrid=           0
         NMat0=    1 NMatS0=     10 NMatT0=    0 NMatD0=    1 NMtDS0=    0 NMtDT0=    0
 Petite list used in FoFCou.

 Cycle   1  Pass 1  IDiag  1:
 E= -1.12283616089525    
 DIIS: error= 2.37D-02 at cycle   1 NSaved=   1.
 NSaved= 1 IEnMin= 1 EnMin= -1.12283616089525     IErMin= 1 ErrMin= 2.37D-02
 ErrMax= 2.37D-02  0.00D+00 EMaxC= 1.00D-01 BMatC= 2.25D-03 BMatP= 2.25D-03
 IDIUse=3 WtCom= 7.63D-01 WtEn= 2.37D-01
 Coeff-Com:  0.100D+01
 Coeff-En:   0.100D+01
 Coeff:      0.100D+01
 Recover alternate guess density for next cycle.
 RMSDP=2.28D-02 MaxDP=3.67D-02              OVMax= 0.00D+00

 Cycle   2  Pass 1  IDiag  1:
 E= -1.12410380092016     Delta-E=       -0.001267640025 Rises=F Damp=F
 DIIS: error= 1.93D-02 at cycle   2 NSaved=   2.
 NSaved= 2 IEnMin= 2 EnMin= -1.12410380092016     IErMin= 2 ErrMin= 1.93D-02
 ErrMax= 1.93D-02  0.00D+00 EMaxC= 1.00D-01 BMatC= 1.49D-03 BMatP= 2.25D-03
 IDIUse=3 WtCom= 8.07D-01 WtEn= 1.93D-01
 Coeff-Com:  0.449D+00 0.551D+00
 Coeff-En:   0.000D+00 0.100D+01
 Coeff:      0.362D+00 0.638D+00
 Gap=     1.360 Goal=   None    Shift=    0.000
 RMSDP=1.01D-02 MaxDP=1.67D-02 DE=-1.27D-03 OVMax= 0.00D+00

 Cycle   3  Pass 1  IDiag  1:
 E= -1.12667920492716     Delta-E=       -0.002575404007 Rises=F Damp=F
 DIIS: error= 5.96D-04 at cycle   3 NSaved=   3.
 NSaved= 3 IEnMin= 3 EnMin= -1.12667920492716     IErMin= 3 ErrMin= 5.96D-04
 ErrMax= 5.96D-04  0.00D+00 EMaxC= 1.00D-01 BMatC= 1.42D-06 BMatP= 1.49D-03
 IDIUse=3 WtCom= 9.94D-01 WtEn= 5.96D-03
 Large coefficients: NSaved=  3 BigCof=    0.00 CofMax=   10.00 Det= 2.17D-19
 Inversion failed.  Reducing to  2 matrices.
 Coeff-Com: -0.319D-01 0.103D+01
 Coeff-En:   0.000D+00 0.100D+01
 Coeff:     -0.317D-01 0.103D+01
 Gap=     0.848 Goal=   None    Shift=    0.000
 RMSDP=3.18D-04 MaxDP=5.13D-04 DE=-2.58D-03 OVMax= 0.00D+00

 Cycle   4  Pass 1  IDiag  1:
 E= -1.12668164614209     Delta-E=       -0.000002441215 Rises=F Damp=F
 DIIS: error= 6.28D-07 at cycle   4 NSaved=   3.
 NSaved= 3 IEnMin= 3 EnMin= -1.12668164614209     IErMin= 3 ErrMin= 6.28D-07
 ErrMax= 6.28D-07  0.00D+00 EMaxC= 1.00D-01 BMatC= 1.58D-12 BMatP= 1.42D-06
 IDIUse=1 WtCom= 1.00D+00 WtEn= 0.00D+00
 Large coefficients: NSaved=  3 BigCof=    0.00 CofMax=   10.00 Det= 2.12D-22
 Inversion failed.  Reducing to  2 matrices.
 Coeff-Com:  0.105D-02 0.999D+00
 Coeff:      0.105D-02 0.999D+00
 Gap=     0.848 Goal=   None    Shift=    0.000
 RMSDP=3.34D-07 MaxDP=5.40D-07 DE=-2.44D-06 OVMax= 0.00D+00

 Cycle   5  Pass 1  IDiag  1:
 E= -1.12668164614480     Delta-E=       -0.000000000003 Rises=F Damp=F
 DIIS: error= 3.64D-11 at cycle   5 NSaved=   3.
 NSaved= 3 IEnMin= 3 EnMin= -1.12668164614480     IErMin= 3 ErrMin= 3.64D-11
 ErrMax= 3.64D-11  0.00D+00 EMaxC= 1.00D-01 BMatC= 5.30D-21 BMatP= 1.58D-12
 IDIUse=1 WtCom= 1.00D+00 WtEn= 0.00D+00
 Large coefficients: NSaved=  3 BigCof=    0.00 CofMax=   10.00 Det= 2.02D-28
 Inversion failed.  Reducing to  2 matrices.
 Coeff-Com:  0.579D-04 0.100D+01
 Coeff:      0.579D-04 0.100D+01
 Gap=     0.848 Goal=   None    Shift=    0.000
 RMSDP=1.94D-11 MaxDP=3.13D-11 DE=-2.71D-12 OVMax= 0.00D+00

 SCF Done:  E(RHF) =  -1.12668164614     A.U. after    5 cycles
            NFock=  5  Conv=0.19D-10     -V/T= 1.9801
 KE= 1.149606319427D+00 PE=-3.674597180899D+00 EE= 6.593064313501D-01
 Leave Link  502 at Fri Apr 15 17:23:32 2016, MaxMem=   104857600 cpu:         0.0
 (Enter /home/projets/algogen/g09.D01/g09/l701.exe)
 Compute integral first derivatives.
 ... and contract with generalized density number  0.
 Leave Link  701 at Fri Apr 15 17:23:32 2016, MaxMem=   104857600 cpu:         0.1
 (Enter /home/projets/algogen/g09.D01/g09/l702.exe)
 L702 exits ... SP integral derivatives will be done elsewhere.
 Leave Link  702 at Fri Apr 15 17:23:32 2016, MaxMem=   104857600 cpu:         0.0
 (Enter /home/projets/algogen/g09.D01/g09/l703.exe)
 Compute integral first derivatives, UseDBF=F ICtDFT=           0.
 Integral derivatives from FoFJK, PRISM(SPDF).
 Calling FoFJK, ICntrl=      2127 FMM=F ISym2X=1 I1Cent= 0 IOpClX= 0 NMat=1 NMatS=1 NMatT=0.
 FoFJK:  IHMeth= 1 ICntrl=    2127 DoSepK=F KAlg= 0 I1Cent=   0 FoldK=F
 IRaf=         0 NMat=   1 IRICut=       1 DoRegI=T DoRafI=F ISym2E= 1.
 FoFCou: FMM=F IPFlag=           0 FMFlag=      100000 FMFlg1=         800
         NFxFlg=           0 DoJE=F BraDBF=F KetDBF=F FulRan=T
         wScrn=  0.000000 ICntrl=    2127 IOpCl=  0 I1Cent=           0 NGrid=           0
         NMat0=    1 NMatS0=      1 NMatT0=    0 NMatD0=    1 NMtDS0=    0 NMtDT0=    0
 Petite list used in FoFCou.
 Leave Link  703 at Fri Apr 15 17:23:32 2016, MaxMem=   104857600 cpu:         0.0
 (Enter /home/projets/algogen/g09.D01/g09/l716.exe)
 Dipole        =-1.23259516D-32-2.46519033D-32 0.00000000D+00
 ***** Axes restored to original set *****
 -------------------------------------------------------------------
 Center     Atomic                   Forces (Hartrees/Bohr)
 Number     Number              X              Y              Z
 -------------------------------------------------------------------
      1        1           0.000000000   -0.011088100   -0.002217620
      2        1           0.000000000    0.011088100    0.002217620
 -------------------------------------------------------------------
 Cartesian Forces:  Max     0.011088100 RMS     0.006528497
 Leave Link  716 at Fri Apr 15 17:23:32 2016, MaxMem=   104857600 cpu:         0.0
 (Enter /home/projets/algogen/g09.D01/g09/l103.exe)

 GradGradGradGradGradGradGradGradGradGradGradGradGradGradGradGradGradGrad
 Berny optimization.
 Using GEDIIS/GDIIS optimizer.
 Red2BG is reusing G-inverse.
 Internal  Forces:  Max     0.011307688 RMS     0.011307688
 Search for a local minimum.
 Step number   3 out of a maximum of   20
 All quantities printed in internal units (Hartrees-Bohrs-Radians)
 RMS Force = .11308D-01 SwitMx=.10000D-02 MixMth= 1
 Mixed Optimization -- RFO/linear search
 Update second derivatives using D2CorX and points    2    3
 DE= -9.53D-03 DEPred=-1.49D-02 R= 6.39D-01
 TightC=F SS=  1.41D+00  RLast= 2.74D-01 DXNew= 8.4853D-01 8.2193D-01
 Trust test= 6.39D-01 RLast= 2.74D-01 DXMaxT set to 8.22D-01
 The second derivative matrix:
                          R1
           R1           0.29089
 ITU=  1  1
 Use linear search instead of GDIIS.
     Eigenvalues ---    0.29089
 RFO step:  Lambda= 0.00000000D+00 EMin= 2.90888939D-01
 Quartic linear search produced a step of -0.09768.
 Iteration  1 RMS(Cart)=  0.01892341 RMS(Int)=  0.00000000
 Iteration  2 RMS(Cart)=  0.00000000 RMS(Int)=  0.00000000
 ITry= 1 IFail=0 DXMaxC= 1.31D-02 DCOld= 1.00D+10 DXMaxT= 8.22D-01 DXLimC= 3.00D+00 Rises=F
 ClnCor:  largest displacement from symmetrization is 4.48D-16 for atom     2.
 Variable       Old X    -DE/DX   Delta X   Delta X   Delta X     New X
                                 (Linear)    (Quad)   (Total)
    R1        1.35317   0.01131   0.02676   0.00000   0.02676   1.37994
         Item               Value     Threshold  Converged?
 Maximum Force            0.011308     0.000450     NO 
 RMS     Force            0.011308     0.000300     NO 
 Maximum Displacement     0.013121     0.001800     NO 
 RMS     Displacement     0.018923     0.001200     NO 
 Predicted change in Energy=-1.984474D-04
 Lowest energy point so far.  Saving SCF results.
 GradGradGradGradGradGradGradGradGradGradGradGradGradGradGradGradGradGrad

 Leave Link  103 at Fri Apr 15 17:23:32 2016, MaxMem=   104857600 cpu:         0.0
 (Enter /home/projets/algogen/g09.D01/g09/l202.exe)
                          Input orientation:                          
 ---------------------------------------------------------------------
 Center     Atomic      Atomic             Coordinates (Angstroms)
 Number     Number       Type             X           Y           Z
 ---------------------------------------------------------------------
      1          1           0        0.000000    1.141975    0.028395
      2          1           0        0.000000    1.858025    0.171605
 ---------------------------------------------------------------------
 Stoichiometry    H2
 Framework group  D*H[C*(H.H)]
 Deg. of freedom     1
 Full point group                 D*H     NOp   8
 RotChk:  IX=0 Diff= 1.42D-16
 Largest Abelian subgroup         D2H     NOp   8
 Largest concise Abelian subgroup C2      NOp   2
                         Standard orientation:                         
 ---------------------------------------------------------------------
 Center     Atomic      Atomic             Coordinates (Angstroms)
 Number     Number       Type             X           Y           Z
 ---------------------------------------------------------------------
      1          1           0        0.000000    0.000000    0.365116
      2          1           0        0.000000    0.000000   -0.365116
 ---------------------------------------------------------------------
 Rotational constants (GHZ):      0.0000000   1880.7952062   1880.7952062
 Leave Link  202 at Fri Apr 15 17:23:32 2016, MaxMem=   104857600 cpu:         0.0
 (Enter /home/projets/algogen/g09.D01/g09/l301.exe)
 Standard basis: 6-31G(d) (6D, 7F)
 Ernie: Thresh=  0.10000D-02 Tol=  0.10000D-05 Strict=F.
 There are     2 symmetry adapted cartesian basis functions of AG  symmetry.
 There are     0 symmetry adapted cartesian basis functions of B1G symmetry.
 There are     0 symmetry adapted cartesian basis functions of B2G symmetry.
 There are     0 symmetry adapted cartesian basis functions of B3G symmetry.
 There are     0 symmetry adapted cartesian basis functions of AU  symmetry.
 There are     2 symmetry adapted cartesian basis functions of B1U symmetry.
 There are     0 symmetry adapted cartesian basis functions of B2U symmetry.
 There are     0 symmetry adapted cartesian basis functions of B3U symmetry.
 There are     2 symmetry adapted basis functions of AG  symmetry.
 There are     0 symmetry adapted basis functions of B1G symmetry.
 There are     0 symmetry adapted basis functions of B2G symmetry.
 There are     0 symmetry adapted basis functions of B3G symmetry.
 There are     0 symmetry adapted basis functions of AU  symmetry.
 There are     2 symmetry adapted basis functions of B1U symmetry.
 There are     0 symmetry adapted basis functions of B2U symmetry.
 There are     0 symmetry adapted basis functions of B3U symmetry.
     4 basis functions,     8 primitive gaussians,     4 cartesian basis functions
     1 alpha electrons        1 beta electrons
       nuclear repulsion energy         0.7246709656 Hartrees.
 IExCor=    0 DFT=F Ex=HF Corr=None ExCW=0 ScaHFX=  1.000000
 ScaDFX=  1.000000  1.000000  1.000000  1.000000 ScalE2=  1.000000  1.000000
 IRadAn=      0 IRanWt=     -1 IRanGd=            0 ICorTp=0 IEmpDi=  4
 NAtoms=    2 NActive=    2 NUniq=    1 SFac= 4.00D+00 NAtFMM=   60 NAOKFM=F Big=F
 Integral buffers will be    131072 words long.
 Raffenetti 1 integral format.
 Two-electron integral symmetry is turned on.
 Leave Link  301 at Fri Apr 15 17:23:32 2016, MaxMem=   104857600 cpu:         0.0
 (Enter /home/projets/algogen/g09.D01/g09/l302.exe)
 NPDir=0 NMtPBC=     1 NCelOv=     1 NCel=       1 NClECP=     1 NCelD=      1
         NCelK=      1 NCelE2=     1 NClLst=     1 CellRange=     0.0.
 One-electron integrals computed using PRISM.
 One-electron integral symmetry used in STVInt
 NBasis=     4 RedAO= T EigKep=  1.33D-01  NBF=     2     0     0     0     0     2     0     0
 NBsUse=     4 1.00D-06 EigRej= -1.00D+00 NBFU=     2     0     0     0     0     2     0     0
 Leave Link  302 at Fri Apr 15 17:23:32 2016, MaxMem=   104857600 cpu:         0.1
 (Enter /home/projets/algogen/g09.D01/g09/l303.exe)
 DipDrv:  MaxL=1.
 Leave Link  303 at Fri Apr 15 17:23:32 2016, MaxMem=   104857600 cpu:         0.0
 (Enter /home/projets/algogen/g09.D01/g09/l401.exe)
 Initial guess from the checkpoint file:  "/scratch_l/henon/h2_6928/Gau-6939.chk"
 B after Tr=     0.000000    0.000000    0.000000
         Rot=    1.000000    0.000000    0.000000    0.000000 Ang=   0.00 deg.
 Guess basis will be translated and rotated to current coordinates.
 JPrj=2 DoOrth=T DoCkMO=T.
 Initial guess orbital symmetries:
       Occupied  (SGG)
       Virtual   (SGG) (SGU) (SGU)
 The electronic state of the initial guess is 1-SGG.
 Leave Link  401 at Fri Apr 15 17:23:32 2016, MaxMem=   104857600 cpu:         0.1
 (Enter /home/projets/algogen/g09.D01/g09/l502.exe)
 Closed shell SCF:
 Using DIIS extrapolation, IDIIS=  1040.
 Integral symmetry usage will be decided dynamically.
 Keep R1 ints in memory in symmetry-blocked form, NReq=821698.
 IVT=       20197 IEndB=       20197 NGot=   104857600 MDV=   104837133
 LenX=   104837133 LenY=   104836251
 Requested convergence on RMS density matrix=1.00D-08 within 128 cycles.
 Requested convergence on MAX density matrix=1.00D-06.
 Requested convergence on             energy=1.00D-06.
 No special actions if energy rises.
 FoFCou: FMM=F IPFlag=           0 FMFlag=           0 FMFlg1=           0
         NFxFlg=           0 DoJE=F BraDBF=F KetDBF=F FulRan=T
         wScrn=  0.000000 ICntrl=     600 IOpCl=  0 I1Cent=           0 NGrid=           0
         NMat0=    1 NMatS0=     10 NMatT0=    0 NMatD0=    1 NMtDS0=    0 NMtDT0=    0
 Petite list used in FoFCou.

 Cycle   1  Pass 1  IDiag  1:
 E= -1.12678686965359    
 DIIS: error= 2.44D-03 at cycle   1 NSaved=   1.
 NSaved= 1 IEnMin= 1 EnMin= -1.12678686965359     IErMin= 1 ErrMin= 2.44D-03
 ErrMax= 2.44D-03  0.00D+00 EMaxC= 1.00D-01 BMatC= 2.38D-05 BMatP= 2.38D-05
 IDIUse=3 WtCom= 9.76D-01 WtEn= 2.44D-02
 Coeff-Com:  0.100D+01
 Coeff-En:   0.100D+01
 Coeff:      0.100D+01
 Gap=     1.368 Goal=   None    Shift=    0.000
 GapD=    1.368 DampG=2.000 DampE=1.000 DampFc=2.0000 IDamp=-1.
 RMSDP=1.11D-03 MaxDP=1.79D-03              OVMax= 0.00D+00

 Cycle   2  Pass 1  IDiag  1:
 E= -1.12682686557008     Delta-E=       -0.000039995916 Rises=F Damp=F
 DIIS: error= 3.63D-04 at cycle   2 NSaved=   2.
 NSaved= 2 IEnMin= 2 EnMin= -1.12682686557008     IErMin= 2 ErrMin= 3.63D-04
 ErrMax= 3.63D-04  0.00D+00 EMaxC= 1.00D-01 BMatC= 5.28D-07 BMatP= 2.38D-05
 IDIUse=3 WtCom= 9.96D-01 WtEn= 3.63D-03
 Coeff-Com: -0.175D+00 0.117D+01
 Coeff-En:   0.000D+00 0.100D+01
 Coeff:     -0.174D+00 0.117D+01
 Gap=     0.840 Goal=   None    Shift=    0.000
 RMSDP=1.94D-04 MaxDP=3.12D-04 DE=-4.00D-05 OVMax= 0.00D+00

 Cycle   3  Pass 1  IDiag  1:
 E= -1.12682777135046     Delta-E=       -0.000000905780 Rises=F Damp=F
 DIIS: error= 1.13D-07 at cycle   3 NSaved=   3.
 NSaved= 3 IEnMin= 3 EnMin= -1.12682777135046     IErMin= 3 ErrMin= 1.13D-07
 ErrMax= 1.13D-07  0.00D+00 EMaxC= 1.00D-01 BMatC= 5.14D-14 BMatP= 5.28D-07
 IDIUse=1 WtCom= 1.00D+00 WtEn= 0.00D+00
 Large coefficients: NSaved=  3 BigCof=    0.00 CofMax=   10.00 Det=-1.06D-22
 Inversion failed.  Reducing to  2 matrices.
 Coeff-Com: -0.312D-03 0.100D+01
 Coeff:     -0.312D-03 0.100D+01
 Gap=     0.840 Goal=   None    Shift=    0.000
 RMSDP=6.06D-08 MaxDP=9.74D-08 DE=-9.06D-07 OVMax= 0.00D+00

 Cycle   4  Pass 1  IDiag  1:
 E= -1.12682777135055     Delta-E=        0.000000000000 Rises=F Damp=F
 DIIS: error= 3.84D-12 at cycle   4 NSaved=   3.
 NSaved= 3 IEnMin= 3 EnMin= -1.12682777135055     IErMin= 3 ErrMin= 3.84D-12
 ErrMax= 3.84D-12  0.00D+00 EMaxC= 1.00D-01 BMatC= 5.89D-23 BMatP= 5.14D-14
 IDIUse=1 WtCom= 1.00D+00 WtEn= 0.00D+00
 Large coefficients: NSaved=  3 BigCof=    0.00 CofMax=   10.00 Det= 1.26D-29
 Inversion failed.  Reducing to  2 matrices.
 Coeff-Com:  0.338D-04 0.100D+01
 Coeff:      0.338D-04 0.100D+01
 Gap=     0.840 Goal=   None    Shift=    0.000
 RMSDP=2.05D-12 MaxDP=3.30D-12 DE=-8.82D-14 OVMax= 0.00D+00

 SCF Done:  E(RHF) =  -1.12682777135     A.U. after    4 cycles
            NFock=  4  Conv=0.21D-11     -V/T= 1.9928
 KE= 1.135044019683D+00 PE=-3.640439987008D+00 EE= 6.538972303616D-01
 Leave Link  502 at Fri Apr 15 17:23:32 2016, MaxMem=   104857600 cpu:         0.0
 (Enter /home/projets/algogen/g09.D01/g09/l701.exe)
 Compute integral first derivatives.
 ... and contract with generalized density number  0.
 Leave Link  701 at Fri Apr 15 17:23:32 2016, MaxMem=   104857600 cpu:         0.1
 (Enter /home/projets/algogen/g09.D01/g09/l702.exe)
 L702 exits ... SP integral derivatives will be done elsewhere.
 Leave Link  702 at Fri Apr 15 17:23:32 2016, MaxMem=   104857600 cpu:         0.0
 (Enter /home/projets/algogen/g09.D01/g09/l703.exe)
 Compute integral first derivatives, UseDBF=F ICtDFT=           0.
 Integral derivatives from FoFJK, PRISM(SPDF).
 Calling FoFJK, ICntrl=      2127 FMM=F ISym2X=1 I1Cent= 0 IOpClX= 0 NMat=1 NMatS=1 NMatT=0.
 FoFJK:  IHMeth= 1 ICntrl=    2127 DoSepK=F KAlg= 0 I1Cent=   0 FoldK=F
 IRaf=         0 NMat=   1 IRICut=       1 DoRegI=T DoRafI=F ISym2E= 1.
 FoFCou: FMM=F IPFlag=           0 FMFlag=      100000 FMFlg1=         800
         NFxFlg=           0 DoJE=F BraDBF=F KetDBF=F FulRan=T
         wScrn=  0.000000 ICntrl=    2127 IOpCl=  0 I1Cent=           0 NGrid=           0
         NMat0=    1 NMatS0=      1 NMatT0=    0 NMatD0=    1 NMtDS0=    0 NMtDT0=    0
 Petite list used in FoFCou.
 Leave Link  703 at Fri Apr 15 17:23:32 2016, MaxMem=   104857600 cpu:         0.0
 (Enter /home/projets/algogen/g09.D01/g09/l716.exe)
 Dipole        = 2.46519033D-32 0.00000000D+00 0.00000000D+00
 ***** Axes restored to original set *****
 -------------------------------------------------------------------
 Center     Atomic                   Forces (Hartrees/Bohr)
 Number     Number              X              Y              Z
 -------------------------------------------------------------------
      1        1           0.000000000    0.000206756    0.000041351
      2        1           0.000000000   -0.000206756   -0.000041351
 -------------------------------------------------------------------
 Cartesian Forces:  Max     0.000206756 RMS     0.000121735
 Leave Link  716 at Fri Apr 15 17:23:32 2016, MaxMem=   104857600 cpu:         0.0
 (Enter /home/projets/algogen/g09.D01/g09/l103.exe)

 GradGradGradGradGradGradGradGradGradGradGradGradGradGradGradGradGradGrad
 Berny optimization.
 Using GEDIIS/GDIIS optimizer.
 Red2BG is reusing G-inverse.
 Internal  Forces:  Max     0.000210851 RMS     0.000210851
 Search for a local minimum.
 Step number   4 out of a maximum of   20
 All quantities printed in internal units (Hartrees-Bohrs-Radians)
 RMS Force = .21085D-03 SwitMx=.10000D-02 MixMth= 2
 Mixed Optimization -- En-DIIS/RFO-DIIS
 Update second derivatives using D2CorX and points    3    4
 DE= -1.46D-04 DEPred=-1.98D-04 R= 7.36D-01
 TightC=F SS=  1.41D+00  RLast= 2.68D-02 DXNew= 1.3823D+00 8.0285D-02
 Trust test= 7.36D-01 RLast= 2.68D-02 DXMaxT set to 8.22D-01
 The second derivative matrix:
                          R1
           R1           0.43041
 ITU=  1  1
 Use linear search instead of GDIIS.
     Eigenvalues ---    0.43041
 RFO step:  Lambda= 0.00000000D+00 EMin= 4.30410661D-01
 Quartic linear search produced a step of -0.01916.
 Iteration  1 RMS(Cart)=  0.00036262 RMS(Int)=  0.00000000
 Iteration  2 RMS(Cart)=  0.00000000 RMS(Int)=  0.00000000
 ITry= 1 IFail=0 DXMaxC= 2.51D-04 DCOld= 1.00D+10 DXMaxT= 8.22D-01 DXLimC= 3.00D+00 Rises=F
 ClnCor:  largest displacement from symmetrization is 6.94D-17 for atom     1.
 Variable       Old X    -DE/DX   Delta X   Delta X   Delta X     New X
                                 (Linear)    (Quad)   (Total)
    R1        1.37994  -0.00021  -0.00051   0.00000  -0.00051   1.37942
         Item               Value     Threshold  Converged?
 Maximum Force            0.000211     0.000450     YES
 RMS     Force            0.000211     0.000300     YES
 Maximum Displacement     0.000251     0.001800     YES
 RMS     Displacement     0.000363     0.001200     YES
 Predicted change in Energy=-5.153284D-08
 Optimization completed.
    -- Stationary point found.
                           ----------------------------
                           !   Optimized Parameters   !
                           ! (Angstroms and Degrees)  !
 --------------------------                            --------------------------
 ! Name  Definition              Value          Derivative Info.                !
 --------------------------------------------------------------------------------
 ! R1    R(1,2)                  0.7302         -DE/DX =   -0.0002              !
 --------------------------------------------------------------------------------
 Lowest energy point so far.  Saving SCF results.
 GradGradGradGradGradGradGradGradGradGradGradGradGradGradGradGradGradGrad

 Largest change from initial coordinates is atom    1       0.145 Angstoms.
 Leave Link  103 at Fri Apr 15 17:23:32 2016, MaxMem=   104857600 cpu:         0.0
 (Enter /home/projets/algogen/g09.D01/g09/l202.exe)
                          Input orientation:                          
 ---------------------------------------------------------------------
 Center     Atomic      Atomic             Coordinates (Angstroms)
 Number     Number       Type             X           Y           Z
 ---------------------------------------------------------------------
      1          1           0        0.000000    1.141975    0.028395
      2          1           0        0.000000    1.858025    0.171605
 ---------------------------------------------------------------------
 Stoichiometry    H2
 Framework group  D*H[C*(H.H)]
 Deg. of freedom     1
 Full point group                 D*H     NOp   8
 RotChk:  IX=0 Diff= 1.37D-16
 Largest Abelian subgroup         D2H     NOp   8
 Largest concise Abelian subgroup C2      NOp   2
                         Standard orientation:                         
 ---------------------------------------------------------------------
 Center     Atomic      Atomic             Coordinates (Angstroms)
 Number     Number       Type             X           Y           Z
 ---------------------------------------------------------------------
      1          1           0        0.000000    0.000000    0.365116
      2          1           0        0.000000    0.000000   -0.365116
 ---------------------------------------------------------------------
 Rotational constants (GHZ):      0.0000000   1880.7952062   1880.7952062
 Leave Link  202 at Fri Apr 15 17:23:32 2016, MaxMem=   104857600 cpu:         0.0
 (Enter /home/projets/algogen/g09.D01/g09/l601.exe)
 Copying SCF densities to generalized density rwf, IOpCl= 0 IROHF=0.

 **********************************************************************

            Population analysis using the SCF density.

 **********************************************************************

 Orbital symmetries:
       Occupied  (SGG)
       Virtual   (SGU) (SGG) (SGU)
 The electronic state is 1-SGG.
 Alpha  occ. eigenvalues --   -0.59880
 Alpha virt. eigenvalues --    0.24108   0.77002   1.41750
     Molecular Orbital Coefficients:
                           1         2         3         4
                       (SGG)--O  (SGU)--V  (SGG)--V  (SGU)--V
     Eigenvalues --    -0.59880   0.24108   0.77002   1.41750
   1 1   H  1S          0.32852   0.12072   0.76196  -1.13083
   2        2S          0.26935   1.73995  -0.68564   1.35713
   3 2   H  1S          0.32852  -0.12072   0.76196   1.13083
   4        2S          0.26935  -1.73995  -0.68564  -1.35713
          Condensed to atoms (all electrons):
               1          2
     1  H    0.593968   0.406032
     2  H    0.406032   0.593968
 Mulliken charges:
               1
     1  H    0.000000
     2  H    0.000000
 Sum of Mulliken charges =   0.00000
 Mulliken charges with hydrogens summed into heavy atoms:
               1
 Electronic spatial extent (au):  <R**2>=              5.1671
 Charge=              0.0000 electrons
 Dipole moment (field-independent basis, Debye):
    X=              0.0000    Y=              0.0000    Z=              0.0000  Tot=              0.0000
 Quadrupole moment (field-independent basis, Debye-Ang):
   XX=             -2.0279   YY=             -2.0279   ZZ=             -1.6135
   XY=              0.0000   XZ=              0.0000   YZ=              0.0000
 Traceless Quadrupole moment (field-independent basis, Debye-Ang):
   XX=             -0.1381   YY=             -0.1381   ZZ=              0.2763
   XY=              0.0000   XZ=              0.0000   YZ=              0.0000
 Octapole moment (field-independent basis, Debye-Ang**2):
  XXX=              0.0000  YYY=              0.0000  ZZZ=              0.0000  XYY=              0.0000
  XXY=              0.0000  XXZ=              0.0000  XZZ=              0.0000  YZZ=              0.0000
  YYZ=              0.0000  XYZ=              0.0000
 Hexadecapole moment (field-independent basis, Debye-Ang**3):
 XXXX=             -1.8707 YYYY=             -1.8707 ZZZZ=             -2.8043 XXXY=              0.0000
 XXXZ=              0.0000 YYYX=              0.0000 YYYZ=              0.0000 ZZZX=              0.0000
 ZZZY=              0.0000 XXYY=             -0.6236 XXZZ=             -0.7897 YYZZ=             -0.7897
 XXYZ=              0.0000 YYXZ=              0.0000 ZZXY=              0.0000
 N-N= 7.246709656136D-01 E-N=-3.640439987013D+00  KE= 1.135044019683D+00
 Symmetry AG   KE= 1.135044019683D+00
 Symmetry B1G  KE= 0.000000000000D+00
 Symmetry B2G  KE= 0.000000000000D+00
 Symmetry B3G  KE= 0.000000000000D+00
 Symmetry AU   KE= 0.000000000000D+00
 Symmetry B1U  KE= 2.535921146132D-33
 Symmetry B2U  KE= 0.000000000000D+00
 Symmetry B3U  KE= 0.000000000000D+00
 Orbital energies and kinetic energies (alpha):
                                 1                 2
   1         (SGG)--O         -0.598801          0.567522
   2         (SGU)--V          0.241080          0.447563
   3         (SGG)--V          0.770024          1.412053
   4         (SGU)--V          1.417497          2.589155
 Total kinetic energy from orbitals= 1.135044019683D+00
 No NMR shielding tensors so no spin-rotation constants.
 Leave Link  601 at Fri Apr 15 17:23:33 2016, MaxMem=   104857600 cpu:         0.1
 (Enter /home/projets/algogen/g09.D01/g09/l9999.exe)

 Test job not archived.
 1\1\GINC-ROMEO174\FOpt\RHF\6-31G(d)\H2\ROOT\15-Apr-2016\0\\#P HF 6-31G
 * OPT FREQ # GFINPUT IOP(6/7=3)\\equilibrium\\0,1\H,0.,1.1419747931,0.
 0283949586\H,0.,1.8580252069,0.1716050414\\Version=ES64L-G09RevD.01\St
 ate=1-SGG\HF=-1.1268278\RMSD=2.051e-12\RMSF=1.217e-04\Dipole=0.,0.,0.\
 Quadrupole=-0.1026948,0.1935401,-0.0908454,0.,0.,0.059247\PG=D*H [C*(H
 1.H1)]\\@


 The cat could very well be man's best friend
 but would never stoop to admitting it.
                               -- Doug Larson
 Leave Link 9999 at Fri Apr 15 17:23:33 2016, MaxMem=   104857600 cpu:         0.0
 Job cpu time:       0 days  0 hours  0 minutes  2.0 seconds.
 File lengths (MBytes):  RWF=      5 Int=      0 D2E=      0 Chk=      1 Scr=      1
 Normal termination of Gaussian 09 at Fri Apr 15 17:23:33 2016.
 (Enter /home/projets/algogen/g09.D01/g09/l1.exe)
 Link1:  Proceeding to internal job step number  2.
 ----------------------------------------------------------------------
 #P Geom=AllCheck Guess=TCheck SCRF=Check Test GenChk RHF/6-31G(d) Freq
 ----------------------------------------------------------------------
 1/10=4,29=7,30=1,38=1,40=1/1,3;
 2/12=2,40=1/2;
 3/5=1,6=6,7=1,11=1,14=-4,16=1,24=10,25=1,30=1,70=2,71=2,116=1,140=1/1,2,3;
 4/5=101/1;
 5/5=2,98=1/2;
 8/6=4,10=90,11=11/1;
 10/13=10,15=4/2;
 11/6=3,8=1,9=11,15=111,16=1/1,2,10;
 10/6=1/2;
 6/7=2,8=2,9=2,10=2,18=1,28=1/1;
 7/8=1,10=1,25=1/1,2,3,16;
 1/10=4,30=1/3;
 99//99;
 Leave Link    1 at Fri Apr 15 17:23:33 2016, MaxMem=   104857600 cpu:         0.0
 (Enter /home/projets/algogen/g09.D01/g09/l101.exe)
 Structure from the checkpoint file:  "/scratch_l/henon/h2_6928/Gau-6939.chk"
 -----------
 equilibrium
 -----------
 Charge =  0 Multiplicity = 1
 Redundant internal coordinates found in file.
 H,0,0.,1.1419747931,0.0283949586
 H,0,0.,1.8580252069,0.1716050414
 Recover connectivity data from disk.
 NAtoms=      2 NQM=        2 NQMF=       0 NMMI=      0 NMMIF=      0
                NMic=       0 NMicF=      0.
                    Isotopes and Nuclear Properties:
 (Nuclear quadrupole moments (NQMom) in fm**2, nuclear magnetic moments (NMagM)
  in nuclear magnetons)

  Atom         1           2
 IAtWgt=           1           1
 AtmWgt=   1.0078250   1.0078250
 NucSpn=           1           1
 AtZEff=  -1.0000000  -1.0000000
 NQMom=    0.0000000   0.0000000
 NMagM=    2.7928460   2.7928460
 AtZNuc=   1.0000000   1.0000000
 Leave Link  101 at Fri Apr 15 17:23:33 2016, MaxMem=   104857600 cpu:         0.1
 (Enter /home/projets/algogen/g09.D01/g09/l103.exe)

 GradGradGradGradGradGradGradGradGradGradGradGradGradGradGradGradGradGrad
 Berny optimization.
 Initialization pass.
                           ----------------------------
                           !    Initial Parameters    !
                           ! (Angstroms and Degrees)  !
 --------------------------                            --------------------------
 ! Name  Definition              Value          Derivative Info.                !
 --------------------------------------------------------------------------------
 ! R1    R(1,2)                  0.7302         calculate D2E/DX2 analytically  !
 --------------------------------------------------------------------------------
 Trust Radius=3.00D-01 FncErr=1.00D-07 GrdErr=1.00D-07
 Number of steps in this run=      2 maximum allowed number of steps=      2.
 GradGradGradGradGradGradGradGradGradGradGradGradGradGradGradGradGradGrad

 Leave Link  103 at Fri Apr 15 17:23:33 2016, MaxMem=   104857600 cpu:         0.0
 (Enter /home/projets/algogen/g09.D01/g09/l202.exe)
                          Input orientation:                          
 ---------------------------------------------------------------------
 Center     Atomic      Atomic             Coordinates (Angstroms)
 Number     Number       Type             X           Y           Z
 ---------------------------------------------------------------------
      1          1           0        0.000000    1.141975    0.028395
      2          1           0        0.000000    1.858025    0.171605
 ---------------------------------------------------------------------
 Stoichiometry    H2
 Framework group  D*H[C*(H.H)]
 Deg. of freedom     1
 Full point group                 D*H     NOp   8
 RotChk:  IX=0 Diff= 1.37D-16
 Largest Abelian subgroup         D2H     NOp   8
 Largest concise Abelian subgroup C2      NOp   2
                         Standard orientation:                         
 ---------------------------------------------------------------------
 Center     Atomic      Atomic             Coordinates (Angstroms)
 Number     Number       Type             X           Y           Z
 ---------------------------------------------------------------------
      1          1           0        0.000000    0.000000    0.365116
      2          1           0        0.000000    0.000000   -0.365116
 ---------------------------------------------------------------------
 Rotational constants (GHZ):      0.0000000   1880.7952062   1880.7952062
 Leave Link  202 at Fri Apr 15 17:23:33 2016, MaxMem=   104857600 cpu:         0.0
 (Enter /home/projets/algogen/g09.D01/g09/l301.exe)
 Standard basis: 6-31G(d) (6D, 7F)
 Ernie: Thresh=  0.10000D-02 Tol=  0.10000D-05 Strict=F.
 AO basis set in the form of general basis input (Overlap normalization):
      1 0
 S   3 1.00       0.000000000000
      0.1873113696D+02  0.3349460434D-01
      0.2825394365D+01  0.2347269535D+00
      0.6401216923D+00  0.8137573261D+00
 S   1 1.00       0.000000000000
      0.1612777588D+00  0.1000000000D+01
 ****
      2 0
 S   3 1.00       0.000000000000
      0.1873113696D+02  0.3349460434D-01
      0.2825394365D+01  0.2347269535D+00
      0.6401216923D+00  0.8137573261D+00
 S   1 1.00       0.000000000000
      0.1612777588D+00  0.1000000000D+01
 ****

 There are     2 symmetry adapted cartesian basis functions of AG  symmetry.
 There are     0 symmetry adapted cartesian basis functions of B1G symmetry.
 There are     0 symmetry adapted cartesian basis functions of B2G symmetry.
 There are     0 symmetry adapted cartesian basis functions of B3G symmetry.
 There are     0 symmetry adapted cartesian basis functions of AU  symmetry.
 There are     2 symmetry adapted cartesian basis functions of B1U symmetry.
 There are     0 symmetry adapted cartesian basis functions of B2U symmetry.
 There are     0 symmetry adapted cartesian basis functions of B3U symmetry.
 There are     2 symmetry adapted basis functions of AG  symmetry.
 There are     0 symmetry adapted basis functions of B1G symmetry.
 There are     0 symmetry adapted basis functions of B2G symmetry.
 There are     0 symmetry adapted basis functions of B3G symmetry.
 There are     0 symmetry adapted basis functions of AU  symmetry.
 There are     2 symmetry adapted basis functions of B1U symmetry.
 There are     0 symmetry adapted basis functions of B2U symmetry.
 There are     0 symmetry adapted basis functions of B3U symmetry.
     4 basis functions,     8 primitive gaussians,     4 cartesian basis functions
     1 alpha electrons        1 beta electrons
       nuclear repulsion energy         0.7246709656 Hartrees.
 IExCor=    0 DFT=F Ex=HF Corr=None ExCW=0 ScaHFX=  1.000000
 ScaDFX=  1.000000  1.000000  1.000000  1.000000 ScalE2=  1.000000  1.000000
 IRadAn=      0 IRanWt=     -1 IRanGd=            0 ICorTp=0 IEmpDi=  4
 NAtoms=    2 NActive=    2 NUniq=    1 SFac= 4.00D+00 NAtFMM=   60 NAOKFM=F Big=F
 Integral buffers will be    131072 words long.
 Raffenetti 1 integral format.
 Two-electron integral symmetry is turned on.
 Leave Link  301 at Fri Apr 15 17:23:33 2016, MaxMem=   104857600 cpu:         0.0
 (Enter /home/projets/algogen/g09.D01/g09/l302.exe)
 NPDir=0 NMtPBC=     1 NCelOv=     1 NCel=       1 NClECP=     1 NCelD=      1
         NCelK=      1 NCelE2=     1 NClLst=     1 CellRange=     0.0.
 One-electron integrals computed using PRISM.
 One-electron integral symmetry used in STVInt
 NBasis=     4 RedAO= T EigKep=  1.33D-01  NBF=     2     0     0     0     0     2     0     0
 NBsUse=     4 1.00D-06 EigRej= -1.00D+00 NBFU=     2     0     0     0     0     2     0     0
 Leave Link  302 at Fri Apr 15 17:23:33 2016, MaxMem=   104857600 cpu:         0.1
 (Enter /home/projets/algogen/g09.D01/g09/l303.exe)
 DipDrv:  MaxL=1.
 Leave Link  303 at Fri Apr 15 17:23:33 2016, MaxMem=   104857600 cpu:         0.0
 (Enter /home/projets/algogen/g09.D01/g09/l401.exe)
 Initial guess from the checkpoint file:  "/scratch_l/henon/h2_6928/Gau-6939.chk"
 B after Tr=     0.000000    0.000000    0.000000
         Rot=    1.000000    0.000000    0.000000    0.000000 Ang=   0.00 deg.
 Guess basis will be translated and rotated to current coordinates.
 JPrj=2 DoOrth=T DoCkMO=T.
 Initial guess orbital symmetries:
       Occupied  (SGG)
       Virtual   (SGU) (SGG) (SGU)
 The electronic state of the initial guess is 1-SGG.
 Leave Link  401 at Fri Apr 15 17:23:33 2016, MaxMem=   104857600 cpu:         0.1
 (Enter /home/projets/algogen/g09.D01/g09/l502.exe)
 Closed shell SCF:
 Using DIIS extrapolation, IDIIS=  1040.
 Integral symmetry usage will be decided dynamically.
 Keep R1 ints in memory in symmetry-blocked form, NReq=821698.
 IVT=       20197 IEndB=       20197 NGot=   104857600 MDV=   104837133
 LenX=   104837133 LenY=   104836251
 Requested convergence on RMS density matrix=1.00D-08 within 128 cycles.
 Requested convergence on MAX density matrix=1.00D-06.
 Requested convergence on             energy=1.00D-06.
 No special actions if energy rises.
 FoFCou: FMM=F IPFlag=           0 FMFlag=           0 FMFlg1=           0
         NFxFlg=           0 DoJE=F BraDBF=F KetDBF=F FulRan=T
         wScrn=  0.000000 ICntrl=     600 IOpCl=  0 I1Cent=           0 NGrid=           0
         NMat0=    1 NMatS0=     10 NMatT0=    0 NMatD0=    1 NMtDS0=    0 NMtDT0=    0
 Petite list used in FoFCou.

 Cycle   1  Pass 1  IDiag  1:
 E= -1.12682777135055    
 DIIS: error= 1.15D-15 at cycle   1 NSaved=   1.
 NSaved= 1 IEnMin= 1 EnMin= -1.12682777135055     IErMin= 1 ErrMin= 1.15D-15
 ErrMax= 1.15D-15  0.00D+00 EMaxC= 1.00D-01 BMatC= 5.27D-30 BMatP= 5.27D-30
 IDIUse=1 WtCom= 1.00D+00 WtEn= 0.00D+00
 Coeff-Com:  0.100D+01
 Coeff:      0.100D+01
 Gap=     0.840 Goal=   None    Shift=    0.000
 Skip diagonalization as Alpha Fock matrix is already diagonal.
 RMSDP=0.00D+00 MaxDP=0.00D+00              OVMax= 0.00D+00

 SCF Done:  E(RHF) =  -1.12682777135     A.U. after    1 cycles
            NFock=  1  Conv=0.00D+00     -V/T= 1.9928
 KE= 1.135044019683D+00 PE=-3.640439987013D+00 EE= 6.538972303660D-01
 Leave Link  502 at Fri Apr 15 17:23:33 2016, MaxMem=   104857600 cpu:         0.0
 (Enter /home/projets/algogen/g09.D01/g09/l801.exe)
 Range of M.O.s used for correlation:     1     4
 NBasis=     4 NAE=     1 NBE=     1 NFC=     0 NFV=     0
 NROrb=      4 NOA=     1 NOB=     1 NVA=     3 NVB=     3
 Leave Link  801 at Fri Apr 15 17:23:33 2016, MaxMem=   104857600 cpu:         0.0
 (Enter /home/projets/algogen/g09.D01/g09/l1002.exe)
 Minotr:  Closed shell wavefunction.
          Direct CPHF calculation.
          Differentiating once with respect to electric field.
                with respect to dipole field.
          Electric field/nuclear overlap derivatives assumed to be zero.
          Using symmetry in CPHF.
          Requested convergence is 1.0D-08 RMS, and 1.0D-07 maximum.
          Secondary convergence is 1.0D-12 RMS, and 1.0D-12 maximum.
          NewPWx=F KeepS1=T KeepF1=T KeepIn=T MapXYZ=F SortEE=F KeepMc=T.
          MDV=     104857576 using IRadAn=       2.
 Keep R1 ints in memory in symmetry-blocked form, NReq=802370.
 FoFCou: FMM=F IPFlag=           0 FMFlag=           0 FMFlg1=           0
         NFxFlg=           0 DoJE=F BraDBF=F KetDBF=F FulRan=T
         wScrn=  0.000000 ICntrl=     600 IOpCl=  0 I1Cent=           0 NGrid=           0
         NMat0=    1 NMatS0=     10 NMatT0=    0 NMatD0=    1 NMtDS0=    0 NMtDT0=    0
 Petite list used in FoFCou.
          Solving linear equations simultaneously, MaxMat=       0.
          There are     3 degrees of freedom in the 1st order CPHF.  IDoFFX=0 NUNeed=     3.
      1 vectors produced by pass  0 Test12= 1.00D-16 3.33D-08 XBig12= 1.46D+00 1.20D+00.
 AX will form     1 AO Fock derivatives at one time.
      1 vectors produced by pass  1 Test12= 1.00D-16 3.33D-08 XBig12= 4.41D-03 6.61D-02.
 InvSVY:  IOpt=1 It=  1 EMax= 0.00D+00
 Solved reduced A of dimension     2 with     1 vectors.
 End of Minotr F.D. properties file   721 does not exist.
 End of Minotr F.D. properties file   722 does not exist.
 End of Minotr F.D. properties file   788 does not exist.
 Leave Link 1002 at Fri Apr 15 17:23:33 2016, MaxMem=   104857600 cpu:         0.0
 (Enter /home/projets/algogen/g09.D01/g09/l1101.exe)
 Using compressed storage, NAtomX=     2.
 Will process      3 centers per pass.
 Leave Link 1101 at Fri Apr 15 17:23:33 2016, MaxMem=   104857600 cpu:         0.1
 (Enter /home/projets/algogen/g09.D01/g09/l1102.exe)
 Symmetrizing basis deriv contribution to polar:
 IMax=3 JMax=2 DiffMx= 0.00D+00
 Leave Link 1102 at Fri Apr 15 17:23:33 2016, MaxMem=   104857600 cpu:         0.0
 (Enter /home/projets/algogen/g09.D01/g09/l1110.exe)
 Forming Gx(P) for the SCF density, NAtomX=     2.
 Integral derivatives from FoFJK, PRISM(SPDF).
 Do as many integral derivatives as possible in FoFJK.
 G2DrvN: MDV=     104857480.
 G2DrvN: will do     3 centers at a time, making    1 passes.
 PxScal for G2LodP:  IOpCl= 0 ISclPx=1 IMOff=     1 NMtTot=     4 NTT=      10 ScalPx= 1.44D+00
 Calling FoFCou, ICntrl=  3107 FMM=F I1Cent=   0 AccDes= 0.00D+00.
 FoFJK:  IHMeth= 1 ICntrl=    3107 DoSepK=F KAlg= 0 I1Cent=   0 FoldK=F
 IRaf=         0 NMat=   1 IRICut=       1 DoRegI=T DoRafI=F ISym2E= 1.
 FoFCou: FMM=F IPFlag=           0 FMFlag=      100000 FMFlg1=           0
         NFxFlg=           0 DoJE=F BraDBF=F KetDBF=F FulRan=T
         wScrn=  0.000000 ICntrl=    3107 IOpCl=  0 I1Cent=           0 NGrid=           0
         NMat0=    1 NMatS0=      1 NMatT0=    0 NMatD0=    4 NMtDS0=    3 NMtDT0=    0
 Petite list used in FoFCou.
 End of G2Drv F.D. properties file   721 does not exist.
 End of G2Drv F.D. properties file   722 does not exist.
 End of G2Drv F.D. properties file   788 does not exist.
 Leave Link 1110 at Fri Apr 15 17:23:33 2016, MaxMem=   104857600 cpu:         0.0
 (Enter /home/projets/algogen/g09.D01/g09/l1002.exe)
 Minotr:  Closed shell wavefunction.
          IDoAtm=11
          Direct CPHF calculation.
          Differentiating once with respect to electric field.
                with respect to dipole field.
          Differentiating once with respect to nuclear coordinates.
          Using symmetry in CPHF.
          Requested convergence is 1.0D-08 RMS, and 1.0D-07 maximum.
          Secondary convergence is 1.0D-12 RMS, and 1.0D-12 maximum.
          NewPWx=T KeepS1=F KeepF1=F KeepIn=T MapXYZ=F SortEE=F KeepMc=T.
          MDV=     104857572 using IRadAn=       2.
 Keep R1 ints in memory in symmetry-blocked form, NReq=802419.
 FoFCou: FMM=F IPFlag=           0 FMFlag=           0 FMFlg1=           0
         NFxFlg=           0 DoJE=F BraDBF=F KetDBF=F FulRan=T
         wScrn=  0.000000 ICntrl=     600 IOpCl=  0 I1Cent=           0 NGrid=           0
         NMat0=    1 NMatS0=     10 NMatT0=    0 NMatD0=    1 NMtDS0=    0 NMtDT0=    0
 Petite list used in FoFCou.
          Solving linear equations simultaneously, MaxMat=       0.
          There are     6 degrees of freedom in the 1st order CPHF.  IDoFFX=4 NUNeed=     6.
 Will reuse    3 saved solutions.
      1 vectors produced by pass  0 Test12= 5.00D-17 1.67D-08 XBig12= 1.76D-02 1.32D-01.
 AX will form     1 AO Fock derivatives at one time.
 InvSVY:  IOpt=1 It=  1 EMax= 0.00D+00
 Solved reduced A of dimension     1 with     1 vectors.
 FullF1:  Do perturbations    1 to     6.
 Isotropic polarizability for W=    0.000000        2.12 Bohr**3.
 FullF1:  Do perturbations    1 to     6.
 End of Minotr F.D. properties file   721 does not exist.
 End of Minotr F.D. properties file   722 does not exist.
 End of Minotr F.D. properties file   788 does not exist.
 Leave Link 1002 at Fri Apr 15 17:23:33 2016, MaxMem=   104857600 cpu:         0.0
 (Enter /home/projets/algogen/g09.D01/g09/l601.exe)
 Copying SCF densities to generalized density rwf, IOpCl= 0 IROHF=0.

 **********************************************************************

            Population analysis using the SCF density.

 **********************************************************************

 Orbital symmetries:
       Occupied  (SGG)
       Virtual   (SGU) (SGG) (SGU)
 The electronic state is 1-SGG.
 Alpha  occ. eigenvalues --   -0.59880
 Alpha virt. eigenvalues --    0.24108   0.77002   1.41750
          Condensed to atoms (all electrons):
               1          2
     1  H    0.593968   0.406032
     2  H    0.406032   0.593968
 Mulliken charges:
               1
     1  H    0.000000
     2  H    0.000000
 Sum of Mulliken charges =   0.00000
 Mulliken charges with hydrogens summed into heavy atoms:
               1
 APT charges:
               1
     1  H    0.000000
     2  H    0.000000
 Sum of APT charges =   0.00000
 APT charges with hydrogens summed into heavy atoms:
               1
 Electronic spatial extent (au):  <R**2>=              5.1671
 Charge=              0.0000 electrons
 Dipole moment (field-independent basis, Debye):
    X=              0.0000    Y=              0.0000    Z=              0.0000  Tot=              0.0000
 Quadrupole moment (field-independent basis, Debye-Ang):
   XX=             -2.0279   YY=             -2.0279   ZZ=             -1.6135
   XY=              0.0000   XZ=              0.0000   YZ=              0.0000
 Traceless Quadrupole moment (field-independent basis, Debye-Ang):
   XX=             -0.1381   YY=             -0.1381   ZZ=              0.2763
   XY=              0.0000   XZ=              0.0000   YZ=              0.0000
 Octapole moment (field-independent basis, Debye-Ang**2):
  XXX=              0.0000  YYY=              0.0000  ZZZ=              0.0000  XYY=              0.0000
  XXY=              0.0000  XXZ=              0.0000  XZZ=              0.0000  YZZ=              0.0000
  YYZ=              0.0000  XYZ=              0.0000
 Hexadecapole moment (field-independent basis, Debye-Ang**3):
 XXXX=             -1.8707 YYYY=             -1.8707 ZZZZ=             -2.8043 XXXY=              0.0000
 XXXZ=              0.0000 YYYX=              0.0000 YYYZ=              0.0000 ZZZX=              0.0000
 ZZZY=              0.0000 XXYY=             -0.6236 XXZZ=             -0.7897 YYZZ=             -0.7897
 XXYZ=              0.0000 YYXZ=              0.0000 ZZXY=              0.0000
 N-N= 7.246709656136D-01 E-N=-3.640439987013D+00  KE= 1.135044019683D+00
 Symmetry AG   KE= 1.135044019683D+00
 Symmetry B1G  KE= 0.000000000000D+00
 Symmetry B2G  KE= 0.000000000000D+00
 Symmetry B3G  KE= 0.000000000000D+00
 Symmetry AU   KE= 0.000000000000D+00
 Symmetry B1U  KE= 2.173646696685D-33
 Symmetry B2U  KE= 0.000000000000D+00
 Symmetry B3U  KE= 0.000000000000D+00
  Exact polarizability:   0.000   0.000   0.000   0.000   0.000   6.355
 Approx polarizability:   0.000   0.000   0.000   0.000   0.000   4.951
 No NMR shielding tensors so no spin-rotation constants.
 Leave Link  601 at Fri Apr 15 17:23:33 2016, MaxMem=   104857600 cpu:         0.1
 (Enter /home/projets/algogen/g09.D01/g09/l701.exe)
 Compute integral second derivatives.
 ... and contract with generalized density number  0.
 Leave Link  701 at Fri Apr 15 17:23:33 2016, MaxMem=   104857600 cpu:         0.1
 (Enter /home/projets/algogen/g09.D01/g09/l702.exe)
 L702 exits ... SP integral derivatives will be done elsewhere.
 Leave Link  702 at Fri Apr 15 17:23:33 2016, MaxMem=   104857600 cpu:         0.0
 (Enter /home/projets/algogen/g09.D01/g09/l703.exe)
 Compute integral second derivatives, UseDBF=F ICtDFT=           0.
 Integral derivatives from FoFJK, PRISM(SPDF).
 Calling FoFJK, ICntrl=    100127 FMM=F ISym2X=1 I1Cent= 0 IOpClX= 0 NMat=1 NMatS=1 NMatT=0.
 FoFJK:  IHMeth= 1 ICntrl=  100127 DoSepK=F KAlg= 0 I1Cent=   0 FoldK=F
 IRaf=         0 NMat=   1 IRICut=       1 DoRegI=T DoRafI=F ISym2E= 1.
 FoFCou: FMM=F IPFlag=           0 FMFlag=      100000 FMFlg1=         800
         NFxFlg=           0 DoJE=F BraDBF=F KetDBF=F FulRan=T
         wScrn=  0.000000 ICntrl=  100127 IOpCl=  0 I1Cent=           0 NGrid=           0
         NMat0=    1 NMatS0=      1 NMatT0=    0 NMatD0=    1 NMtDS0=    0 NMtDT0=    0
 Petite list used in FoFCou.
 Leave Link  703 at Fri Apr 15 17:23:33 2016, MaxMem=   104857600 cpu:         0.0
 (Enter /home/projets/algogen/g09.D01/g09/l716.exe)
 Dipole        = 1.23259516D-32 0.00000000D+00 1.38777878D-17
 Polarizability= 2.38292085D-32 0.00000000D+00 0.00000000D+00
                -3.89160508D-16 0.00000000D+00 6.35547339D+00
 HyperPolar    = 1.38365259D-62 0.00000000D+00 0.00000000D+00
                 0.00000000D+00-2.44119924D-46 0.00000000D+00
                 0.00000000D+00 4.25557377D-30 0.00000000D+00
                -7.24263447D-14
 Full mass-weighted force constant matrix:
 Low frequencies ---   -0.0001    0.0001    0.0001   89.5127   89.5127 4642.0882
 Diagonal vibrational polarizability:
        0.0000000       0.0000000       0.0000000
 Diagonal vibrational hyperpolarizability:
        0.0000000       0.0000000       0.0000000
 Harmonic frequencies (cm**-1), IR intensities (KM/Mole), Raman scattering
 activities (A**4/AMU), depolarization ratios for plane and unpolarized
 incident light, reduced masses (AMU), force constants (mDyne/A),
 and normal coordinates:
                      1
                     SGG
 Frequencies --   4642.0882
 Red. masses --      1.0078
 Frc consts  --     12.7956
 IR Inten    --      0.0000
 Raman Activ --     89.3977
 Depolar (P) --      0.3333
 Depolar (U) --      0.5000
  Atom  AN      X      Y      Z
     1   1     0.00   0.00   0.71
     2   1     0.00   0.00  -0.71

 -------------------
 - Thermochemistry -
 -------------------
 Temperature   298.150 Kelvin.  Pressure   1.00000 Atm.
 Atom     1 has atomic number  1 and mass   1.00783
 Atom     2 has atomic number  1 and mass   1.00783
 Molecular mass:     2.01565 amu.
 Principal axes and moments of inertia in atomic units:
                           1         2         3
     Eigenvalues --     0.00000   0.95956   0.95956
           X            0.00000   1.00000   0.00000
           Y            0.00000   0.00000   1.00000
           Z            1.00000   0.00000   0.00000
 This molecule is a prolate symmetric top.
 Rotational symmetry number  2.
 Rotational temperature (Kelvin)     90.26383
 Rotational constant (GHZ):        1880.795206
 Zero-point vibrational energy      27765.9 (Joules/Mol)
                                    6.63620 (Kcal/Mol)
 Vibrational temperatures:   6678.92
          (Kelvin)
 
 Zero-point correction=                           0.010575 (Hartree/Particle)
 Thermal correction to Energy=                    0.012936
 Thermal correction to Enthalpy=                  0.013880
 Thermal correction to Gibbs Free Energy=        -0.000880
 Sum of electronic and zero-point Energies=             -1.116252
 Sum of electronic and thermal Energies=                -1.113892
 Sum of electronic and thermal Enthalpies=              -1.112948
 Sum of electronic and thermal Free Energies=           -1.127707
 
                     E (Thermal)             CV                S
                      KCal/Mol        Cal/Mol-Kelvin    Cal/Mol-Kelvin
 Total                    8.117              4.968             31.065
 Electronic               0.000              0.000              0.000
 Translational            0.889              2.981             28.080
 Rotational               0.592              1.987              2.984
 Vibrational              6.636              0.000              0.000
                       Q            Log10(Q)             Ln(Q)
 Total Bot       0.253868D+01          0.404608          0.931644
 Total V=0       0.185767D+06          5.268969         12.132249
 Vib (Bot)       0.136659D-04         -4.864361        -11.200606
 Vib (V=0)       0.100000D+01          0.000000          0.000000
 Electronic      0.100000D+01          0.000000          0.000000
 Translational   0.112481D+06          5.051078         11.630537
 Rotational      0.165155D+01          0.217891          0.501713
 ***** Axes restored to original set *****
 -------------------------------------------------------------------
 Center     Atomic                   Forces (Hartrees/Bohr)
 Number     Number              X              Y              Z
 -------------------------------------------------------------------
      1        1           0.000000000    0.000206756    0.000041351
      2        1           0.000000000   -0.000206756   -0.000041351
 -------------------------------------------------------------------
 Cartesian Forces:  Max     0.000206756 RMS     0.000121735
 Force constants in Cartesian coordinates: 
                1             2             3             4             5 
      1  0.152797D-03
      2  0.000000D+00  0.395136D+00
      3  0.000000D+00  0.789966D-01  0.159521D-01
      4 -0.152797D-03  0.000000D+00  0.000000D+00  0.152797D-03
      5  0.000000D+00 -0.395136D+00 -0.789966D-01  0.000000D+00  0.395136D+00
      6  0.000000D+00 -0.789966D-01 -0.159521D-01  0.000000D+00  0.789966D-01
                6 
      6  0.159521D-01
 FormGI is forming the generalized inverse of G from B-inverse, IUseBI=4.
 Force constants in internal coordinates: 
                1 
      1  0.410935D+00
 Leave Link  716 at Fri Apr 15 17:23:33 2016, MaxMem=   104857600 cpu:         0.0
 (Enter /home/projets/algogen/g09.D01/g09/l103.exe)

 GradGradGradGradGradGradGradGradGradGradGradGradGradGradGradGradGradGrad
 Berny optimization.
 Red2BG is reusing G-inverse.
 Internal  Forces:  Max     0.000210851 RMS     0.000210851
 Search for a local minimum.
 Step number   1 out of a maximum of    2
 All quantities printed in internal units (Hartrees-Bohrs-Radians)
 Second derivative matrix not updated -- analytic derivatives used.
 The second derivative matrix:
                          R1
           R1           0.41094
 ITU=  0
     Eigenvalues ---    0.41094
 Angle between quadratic step and forces=   0.00 degrees.
 Linear search not attempted -- first point.
 Iteration  1 RMS(Cart)=  0.00036282 RMS(Int)=  0.00000000
 Iteration  2 RMS(Cart)=  0.00000000 RMS(Int)=  0.00000000
 ITry= 1 IFail=0 DXMaxC= 2.52D-04 DCOld= 1.00D+10 DXMaxT= 3.00D-01 DXLimC= 3.00D+00 Rises=F
 ClnCor:  largest displacement from symmetrization is 4.52D-16 for atom     1.
 Variable       Old X    -DE/DX   Delta X   Delta X   Delta X     New X
                                 (Linear)    (Quad)   (Total)
    R1        1.37994  -0.00021   0.00000  -0.00051  -0.00051   1.37942
         Item               Value     Threshold  Converged?
 Maximum Force            0.000211     0.000450     YES
 RMS     Force            0.000211     0.000300     YES
 Maximum Displacement     0.000252     0.001800     YES
 RMS     Displacement     0.000363     0.001200     YES
 Predicted change in Energy=-5.409372D-08
 Optimization completed.
    -- Stationary point found.
                           ----------------------------
                           !   Optimized Parameters   !
                           ! (Angstroms and Degrees)  !
 --------------------------                            --------------------------
 ! Name  Definition              Value          Derivative Info.                !
 --------------------------------------------------------------------------------
 ! R1    R(1,2)                  0.7302         -DE/DX =   -0.0002              !
 --------------------------------------------------------------------------------
 GradGradGradGradGradGradGradGradGradGradGradGradGradGradGradGradGradGrad

 Leave Link  103 at Fri Apr 15 17:23:33 2016, MaxMem=   104857600 cpu:         0.0
 (Enter /home/projets/algogen/g09.D01/g09/l9999.exe)

 Test job not archived.
 1\1\GINC-ROMEO174\Freq\RHF\6-31G(d)\H2\ROOT\15-Apr-2016\0\\#P Geom=All
 Check Guess=TCheck SCRF=Check Test GenChk RHF/6-31G(d) Freq\\equilibri
 um\\0,1\H,0.,1.1419747931,0.0283949586\H,0.,1.8580252069,0.1716050414\
 \Version=ES64L-G09RevD.01\State=1-SGG\HF=-1.1268278\RMSD=0.000e+00\RMS
 F=1.217e-04\ZeroPoint=0.0105755\Thermal=0.0129359\Dipole=0.,0.,0.\Dipo
 leDeriv=0.,0.,0.,0.,0.,0.,0.,0.,0.,0.,0.,0.,0.,0.,0.,0.,0.,0.\Polar=0.
 ,0.,6.1110321,0.,1.2222064,0.2444413\PolarDeriv=0.,-4.5161889,0.,-0.90
 32378,0.,0.,0.,0.,-6.8711565,0.,-0.4709935,0.0864488,0.,0.,0.4322442,0
 .,-4.42974,-1.7891858,0.,4.5161889,0.,0.9032378,0.,0.,0.,0.,6.8711565,
 0.,0.4709935,-0.0864488,0.,0.,-0.4322442,0.,4.42974,1.7891858\HyperPol
 ar=0.,0.,0.,0.,0.,0.,0.,0.,0.,0.\PG=D*H [C*(H1.H1)]\NImag=0\\0.0001528
 0,0.,0.39513591,0.,0.07899662,0.01595212,-0.00015280,0.,0.,0.00015280,
 0.,-0.39513591,-0.07899662,0.,0.39513591,0.,-0.07899662,-0.01595212,0.
 ,0.07899662,0.01595212\\0.,-0.00020676,-0.00004135,0.,0.00020676,0.000
 04135\\\@


 The cat could very well be man's best friend
 but would never stoop to admitting it.
                               -- Doug Larson
 Job cpu time:       0 days  0 hours  0 minutes  0.9 seconds.
 File lengths (MBytes):  RWF=      5 Int=      0 D2E=      0 Chk=      1 Scr=      1
 Normal termination of Gaussian 09 at Fri Apr 15 17:23:33 2016.
************
total 112
drwxrwxr-x 2 henon henon  4096 15 avril 17:23 .
drwxrwxr-x 3 henon henon  4096 15 avril 17:23 ..
-rw-rw-r-- 1 henon henon   191 15 avril 17:23 h2.inp
-rw-rw-r-- 1 henon henon 99648 15 avril 17:23 h2.out
Run on 1 cores
romeo174
************
