 Entering Gaussian System, Link 0=g03
 Initial command:
 /soft/g03/g03/l1.exe /local/run/antares-adm.114834.0/Gau-16594.inp -scrdir=/local/run/antares-adm.114834.0/
 Entering Link 1 = /soft/g03/g03/l1.exe PID=     16595.
  
 Copyright (c) 1988,1990,1992,1993,1995,1998,2003,2004, Gaussian, Inc.
                  All Rights Reserved.
  
 This is the Gaussian(R) 03 program.  It is based on the
 the Gaussian(R) 98 system (copyright 1998, Gaussian, Inc.),
 the Gaussian(R) 94 system (copyright 1995, Gaussian, Inc.),
 the Gaussian 92(TM) system (copyright 1992, Gaussian, Inc.),
 the Gaussian 90(TM) system (copyright 1990, Gaussian, Inc.),
 the Gaussian 88(TM) system (copyright 1988, Gaussian, Inc.),
 the Gaussian 86(TM) system (copyright 1986, Carnegie Mellon
 University), and the Gaussian 82(TM) system (copyright 1983,
 Carnegie Mellon University). Gaussian is a federally registered
 trademark of Gaussian, Inc.
  
 This software contains proprietary and confidential information,
 including trade secrets, belonging to Gaussian, Inc.
  
 This software is provided under written license and may be
 used, copied, transmitted, or stored only in accord with that
 written license.
  
 The following legend is applicable only to US Government
 contracts under FAR:
  
                    RESTRICTED RIGHTS LEGEND
  
 Use, reproduction and disclosure by the US Government is
 subject to restrictions as set forth in subparagraphs (a)
 and (c) of the Commercial Computer Software - Restricted
 Rights clause in FAR 52.227-19.
  
 Gaussian, Inc.
 340 Quinnipiac St., Bldg. 40, Wallingford CT 06492
  
  
 ---------------------------------------------------------------
 Warning -- This program may not be used in any manner that
 competes with the business of Gaussian, Inc. or will provide
 assistance to any competitor of Gaussian, Inc.  The licensee
 of this program is prohibited from giving any competitor of
 Gaussian, Inc. access to this program.  By using this program,
 the user acknowledges that Gaussian, Inc. is engaged in the
 business of creating and licensing software in the field of
 computational chemistry and represents and warrants to the
 licensee that it is not a competitor of Gaussian, Inc. and that
 it will not use this program in any manner prohibited above.
 ---------------------------------------------------------------
  

 Cite this work as:
 Gaussian 03, Revision C.02,
 M. J. Frisch, G. W. Trucks, H. B. Schlegel, G. E. Scuseria, 
 M. A. Robb, J. R. Cheeseman, J. A. Montgomery, Jr., T. Vreven, 
 K. N. Kudin, J. C. Burant, J. M. Millam, S. S. Iyengar, J. Tomasi, 
 V. Barone, B. Mennucci, M. Cossi, G. Scalmani, N. Rega, 
 G. A. Petersson, H. Nakatsuji, M. Hada, M. Ehara, K. Toyota, 
 R. Fukuda, J. Hasegawa, M. Ishida, T. Nakajima, Y. Honda, O. Kitao, 
 H. Nakai, M. Klene, X. Li, J. E. Knox, H. P. Hratchian, J. B. Cross, 
 C. Adamo, J. Jaramillo, R. Gomperts, R. E. Stratmann, O. Yazyev, 
 A. J. Austin, R. Cammi, C. Pomelli, J. W. Ochterski, P. Y. Ayala, 
 K. Morokuma, G. A. Voth, P. Salvador, J. J. Dannenberg, 
 V. G. Zakrzewski, S. Dapprich, A. D. Daniels, M. C. Strain, 
 O. Farkas, D. K. Malick, A. D. Rabuck, K. Raghavachari, 
 J. B. Foresman, J. V. Ortiz, Q. Cui, A. G. Baboul, S. Clifford, 
 J. Cioslowski, B. B. Stefanov, G. Liu, A. Liashenko, P. Piskorz, 
 I. Komaromi, R. L. Martin, D. J. Fox, T. Keith, M. A. Al-Laham, 
 C. Y. Peng, A. Nanayakkara, M. Challacombe, P. M. W. Gill, 
 B. Johnson, W. Chen, M. W. Wong, C. Gonzalez, and J. A. Pople, 
 Gaussian, Inc., Wallingford CT, 2004.
 
 ******************************************
 Gaussian 03:  AM64L-G03RevC.02 12-Jun-2004
                10-Apr-2013 
 ******************************************
 -------------------------------------------------
 #P MP2 6-31G** iop(6/7=3) gfinput pop=full # freq
 -------------------------------------------------
 1/10=4,30=1,38=1/1,3;
 2/17=6,18=5,40=1/2;
 3/5=1,6=6,7=101,11=9,16=1,24=10,25=1,30=1/1,2,3;
 4//1;
 5/5=2,38=5/2;
 8/6=3,8=1,10=2,19=11,30=-1/1;
 9/15=3,16=-3/6;
 11/6=1,8=1,15=11,17=12,24=-1,27=1,28=-2,29=300,32=6,42=3/1,2,10;
 10/6=2,21=1/2;
 8/6=4,8=1,10=2,19=11,30=-1/11,4;
 10/5=1,20=4/2;
 11/12=2,14=11,16=1,17=2,28=-2,42=3/2,10,12;
 6/7=3/1;
 7/8=1,10=1,12=2,25=1,44=2/1,2,3,16;
 1/10=4,30=1/3;
 99//99;
 Leave Link    1 at Wed Apr 10 03:13:59 2013, MaxMem=          0 cpu:       0.1
 (Enter /soft/g03/g03/l101.exe)
 ---
 job
 ---
 Symbolic Z-matrix:
 Charge =  0 Multiplicity = 2
 6                     0.24993   0.        0. 
 1                     0.52279  -0.00881   1.04799 
 1                     0.52279   0.912    -0.51636 
 1                     0.52281  -0.90318  -0.53163 
 1                    -1.03854  -0.00001  0. 
 1                    -2.02944  0.        0. 
 
                    Isotopes and Nuclear Properties:

  Atom         1           2           3           4           5           6
 IAtWgt=          12           1           1           1           1           1
 AtmWgt=  12.0000000   1.0078250   1.0078250   1.0078250   1.0078250   1.0078250
 IAtSpn=           0           1           1           1           1           1
 AtZEff=   0.0000000   0.0000000   0.0000000   0.0000000   0.0000000   0.0000000
 AtQMom=   0.0000000   0.0000000   0.0000000   0.0000000   0.0000000   0.0000000
 AtGFac=   0.0000000   2.7928460   2.7928460   2.7928460   2.7928460   2.7928460
 Leave Link  101 at Wed Apr 10 03:13:59 2013, MaxMem=    6291456 cpu:       0.0
 (Enter /soft/g03/g03/l103.exe)

 GradGradGradGradGradGradGradGradGradGradGradGradGradGradGradGradGradGrad
 Berny optimization.
 Initialization pass.
 Trust Radius=3.00D-01 FncErr=1.00D-07 GrdErr=1.00D-07
 Number of steps in this run=   2 maximum allowed number of steps=   2.
 GradGradGradGradGradGradGradGradGradGradGradGradGradGradGradGradGradGrad

 Leave Link  103 at Wed Apr 10 03:13:59 2013, MaxMem=    6291456 cpu:       0.0
 (Enter /soft/g03/g03/l202.exe)
                          Input orientation:                          
 ---------------------------------------------------------------------
 Center     Atomic     Atomic              Coordinates (Angstroms)
 Number     Number      Type              X           Y           Z
 ---------------------------------------------------------------------
    1          6             0        0.249932    0.000000    0.000000
    2          1             0        0.522794   -0.008810    1.047994
    3          1             0        0.522793    0.911997   -0.516364
    4          1             0        0.522806   -0.903181   -0.531628
    5          1             0       -1.038544   -0.000007   -0.000002
    6          1             0       -2.029441   -0.000001   -0.000001
 ---------------------------------------------------------------------
                    Distance matrix (angstroms):
                    1          2          3          4          5
     1  C    0.000000
     2  H    1.082969   0.000000
     3  H    1.082970   1.815241   0.000000
     4  H    1.082970   1.815242   1.815242   0.000000
     5  H    1.288476   1.880465   1.880466   1.880469   0.000000
     6  H    2.279373   2.759035   2.759034   2.759044   0.990897
                    6
     6  H    0.000000
 This structure is nearly, but not quite of a higher symmetry.
 Consider Symm=Loose if the higher symmetry is desired.
 Stoichiometry    CH5(2)
 Framework group  C1[X(CH5)]
 Deg. of freedom    12
 Full point group                 C1      NOp   1
 Largest Abelian subgroup         C1      NOp   1
 Largest concise Abelian subgroup C1      NOp   1
                         Standard orientation:                         
 ---------------------------------------------------------------------
 Center     Atomic     Atomic              Coordinates (Angstroms)
 Number     Number      Type              X           Y           Z
 ---------------------------------------------------------------------
    1          6             0        0.108461   -0.109264   -0.196885
    2          1             0       -0.521790   -0.961932   -0.417259
    3          1             0        1.099469   -0.374655    0.149951
    4          1             0        0.102945    0.650917   -0.968194
    5          1             0       -0.450690    0.454032    0.818112
    6          1             0       -0.880698    0.887224    1.598698
 ---------------------------------------------------------------------
 Rotational constants (GHZ):    152.1818923     60.5653685     60.5653525
 Leave Link  202 at Wed Apr 10 03:13:59 2013, MaxMem=    6291456 cpu:       0.0
 (Enter /soft/g03/g03/l301.exe)
 Standard basis: 6-31G(d,p) (6D, 7F)
 AO basis set in the form of general basis input:
  1 0
 S   6 1.00       0.000000000000
      0.3047524880D+04  0.1834737132D-02
      0.4573695180D+03  0.1403732281D-01
      0.1039486850D+03  0.6884262226D-01
      0.2921015530D+02  0.2321844432D+00
      0.9286662960D+01  0.4679413484D+00
      0.3163926960D+01  0.3623119853D+00
 SP   3 1.00       0.000000000000
      0.7868272350D+01 -0.1193324198D+00  0.6899906659D-01
      0.1881288540D+01 -0.1608541517D+00  0.3164239610D+00
      0.5442492580D+00  0.1143456438D+01  0.7443082909D+00
 SP   1 1.00       0.000000000000
      0.1687144782D+00  0.1000000000D+01  0.1000000000D+01
 D   1 1.00       0.000000000000
      0.8000000000D+00  0.1000000000D+01
 ****
  2 0
 S   3 1.00       0.000000000000
      0.1873113696D+02  0.3349460434D-01
      0.2825394365D+01  0.2347269535D+00
      0.6401216923D+00  0.8137573261D+00
 S   1 1.00       0.000000000000
      0.1612777588D+00  0.1000000000D+01
 P   1 1.00       0.000000000000
      0.1100000000D+01  0.1000000000D+01
 ****
  3 0
 S   3 1.00       0.000000000000
      0.1873113696D+02  0.3349460434D-01
      0.2825394365D+01  0.2347269535D+00
      0.6401216923D+00  0.8137573261D+00
 S   1 1.00       0.000000000000
      0.1612777588D+00  0.1000000000D+01
 P   1 1.00       0.000000000000
      0.1100000000D+01  0.1000000000D+01
 ****
  4 0
 S   3 1.00       0.000000000000
      0.1873113696D+02  0.3349460434D-01
      0.2825394365D+01  0.2347269535D+00
      0.6401216923D+00  0.8137573261D+00
 S   1 1.00       0.000000000000
      0.1612777588D+00  0.1000000000D+01
 P   1 1.00       0.000000000000
      0.1100000000D+01  0.1000000000D+01
 ****
  5 0
 S   3 1.00       0.000000000000
      0.1873113696D+02  0.3349460434D-01
      0.2825394365D+01  0.2347269535D+00
      0.6401216923D+00  0.8137573261D+00
 S   1 1.00       0.000000000000
      0.1612777588D+00  0.1000000000D+01
 P   1 1.00       0.000000000000
      0.1100000000D+01  0.1000000000D+01
 ****
  6 0
 S   3 1.00       0.000000000000
      0.1873113696D+02  0.3349460434D-01
      0.2825394365D+01  0.2347269535D+00
      0.6401216923D+00  0.8137573261D+00
 S   1 1.00       0.000000000000
      0.1612777588D+00  0.1000000000D+01
 P   1 1.00       0.000000000000
      0.1100000000D+01  0.1000000000D+01
 ****

 There are    40 symmetry adapted basis functions of A   symmetry.
 Integral buffers will be    131072 words long.
 Raffenetti 2 integral format.
 Two-electron integral symmetry is turned on.
    40 basis functions,    63 primitive gaussians,    40 cartesian basis functions
     6 alpha electrons        5 beta electrons
       nuclear repulsion energy        15.4807999810 Hartrees.
 IExCor=   0 DFT=F Ex=HF Corr=None ExCW=0 ScaHFX=  1.000000
 ScaDFX=  1.000000  1.000000  1.000000  1.000000
 IRadAn=      0 IRanWt=     -1 IRanGd=            0 ICorTp=0
 NAtoms=    6 NActive=    6 NUniq=    6 SFac= 1.00D+00 NAtFMM=   60 Big=F
 Leave Link  301 at Wed Apr 10 03:13:59 2013, MaxMem=    6291456 cpu:       0.0
 (Enter /soft/g03/g03/l302.exe)
 NPDir=0 NMtPBC=     1 NCelOv=     1 NCel=       1 NClECP=     1 NCelD=      1
         NCelK=      1 NCelE2=     1 NClLst=     1 CellRange=     0.0.
 One-electron integrals computed using PRISM.
 NBasis=    40 RedAO= T  NBF=    40
 NBsUse=    40 1.00D-06 NBFU=    40
 Leave Link  302 at Wed Apr 10 03:13:59 2013, MaxMem=    6291456 cpu:       0.1
 (Enter /soft/g03/g03/l303.exe)
 DipDrv:  MaxL=1.
 Leave Link  303 at Wed Apr 10 03:13:59 2013, MaxMem=    6291456 cpu:       0.0
 (Enter /soft/g03/g03/l401.exe)
 Harris functional with IExCor=  205 diagonalized for initial guess.
 ExpMin= 1.61D-01 ExpMax= 3.05D+03 ExpMxC= 4.57D+02 IAcc=1 IRadAn=         1 AccDes= 1.00D-06
 HarFok:  IExCor= 205 AccDes= 1.00D-06 IRadAn=         1 IDoV=1
 ScaDFX=  1.000000  1.000000  1.000000  1.000000
 Harris En= -40.8439831023818    
 Initial guess orbital symmetries:
 Alpha Orbitals:
       Occupied  (A) (A) (A) (A) (A) (A)
       Virtual   (A) (A) (A) (A) (A) (A) (A) (A) (A) (A) (A) (A)
                 (A) (A) (A) (A) (A) (A) (A) (A) (A) (A) (A) (A)
                 (A) (A) (A) (A) (A) (A) (A) (A) (A) (A)
 Beta  Orbitals:
       Occupied  (A) (A) (A) (A) (A)
       Virtual   (A) (A) (A) (A) (A) (A) (A) (A) (A) (A) (A) (A)
                 (A) (A) (A) (A) (A) (A) (A) (A) (A) (A) (A) (A)
                 (A) (A) (A) (A) (A) (A) (A) (A) (A) (A) (A)
 The electronic state of the initial guess is 2-A.
 <S**2> of initial guess= 0.7500
 Leave Link  401 at Wed Apr 10 03:13:59 2013, MaxMem=    6291456 cpu:       0.1
 (Enter /soft/g03/g03/l502.exe)
 UHF open shell SCF:
 Requested convergence on RMS density matrix=1.00D-08 within 128 cycles.
 Requested convergence on MAX density matrix=1.00D-06.
 Requested convergence on             energy=1.00D-06.
 No special actions if energy rises.
 Using DIIS extrapolation, IDIIS=  1040.
 Integral symmetry usage will be decided dynamically.
 Keep R1 and R2 integrals in memory in canonical form, NReq=     1550873.
 IEnd=     23199 IEndB=     23199 NGot=   6291456 MDV=   5613304
 LenX=   5613304
 Symmetry not used in FoFDir.
 MinBra= 0 MaxBra= 2 Meth= 1.
 IRaf=       0 NMat=   1 IRICut=       1 DoRegI=T DoRafI=F ISym2E= 0 JSym2E=0.

 Cycle   1  Pass 1  IDiag  1:
 E= -40.5229260176074    
 DIIS: error= 5.72D-02 at cycle   1 NSaved=   1.
 NSaved= 1 IEnMin= 1 EnMin= -40.5229260176074     IErMin= 1 ErrMin= 5.72D-02
 ErrMax= 5.72D-02 EMaxC= 1.00D-01 BMatC= 5.63D-01 BMatP= 5.63D-01
 IDIUse=3 WtCom= 4.28D-01 WtEn= 5.72D-01
 Coeff-Com:  0.100D+01
 Coeff-En:   0.100D+01
 Coeff:      0.100D+01
 Gap=     0.639 Goal=   None    Shift=    0.000
 Gap=     0.566 Goal=   None    Shift=    0.000
 GapD=    0.566 DampG=2.000 DampE=0.500 DampFc=1.0000 IDamp=-1.
 RMSDP=1.16D-02 MaxDP=1.87D-01              OVMax= 1.84D-01

 Cycle   2  Pass 1  IDiag  1:
 E= -40.6359260913416     Delta-E=       -0.113000073734 Rises=F Damp=F
 DIIS: error= 2.10D-02 at cycle   2 NSaved=   2.
 NSaved= 2 IEnMin= 2 EnMin= -40.6359260913416     IErMin= 2 ErrMin= 2.10D-02
 ErrMax= 2.10D-02 EMaxC= 1.00D-01 BMatC= 1.02D-01 BMatP= 5.63D-01
 IDIUse=3 WtCom= 7.90D-01 WtEn= 2.10D-01
 Coeff-Com:  0.263D+00 0.737D+00
 Coeff-En:   0.000D+00 0.100D+01
 Coeff:      0.208D+00 0.792D+00
 Gap=     0.629 Goal=   None    Shift=    0.000
 Gap=     0.666 Goal=   None    Shift=    0.000
 RMSDP=3.73D-03 MaxDP=5.20D-02 DE=-1.13D-01 OVMax= 5.65D-02

 Cycle   3  Pass 1  IDiag  1:
 E= -40.6613586652108     Delta-E=       -0.025432573869 Rises=F Damp=F
 DIIS: error= 8.12D-03 at cycle   3 NSaved=   3.
 NSaved= 3 IEnMin= 3 EnMin= -40.6613586652108     IErMin= 3 ErrMin= 8.12D-03
 ErrMax= 8.12D-03 EMaxC= 1.00D-01 BMatC= 3.37D-03 BMatP= 1.02D-01
 IDIUse=3 WtCom= 9.19D-01 WtEn= 8.12D-02
 Coeff-Com: -0.498D-01 0.201D-01 0.103D+01
 Coeff-En:   0.000D+00 0.000D+00 0.100D+01
 Coeff:     -0.457D-01 0.185D-01 0.103D+01
 Gap=     0.617 Goal=   None    Shift=    0.000
 Gap=     0.617 Goal=   None    Shift=    0.000
 RMSDP=1.24D-03 MaxDP=2.66D-02 DE=-2.54D-02 OVMax= 2.05D-02

 Cycle   4  Pass 1  IDiag  1:
 E= -40.6629489630029     Delta-E=       -0.001590297792 Rises=F Damp=F
 DIIS: error= 2.67D-03 at cycle   4 NSaved=   4.
 NSaved= 4 IEnMin= 4 EnMin= -40.6629489630029     IErMin= 4 ErrMin= 2.67D-03
 ErrMax= 2.67D-03 EMaxC= 1.00D-01 BMatC= 4.57D-04 BMatP= 3.37D-03
 IDIUse=3 WtCom= 9.73D-01 WtEn= 2.67D-02
 Coeff-Com:  0.242D-01-0.588D-01-0.792D+00 0.183D+01
 Coeff-En:   0.000D+00 0.000D+00 0.000D+00 0.100D+01
 Coeff:      0.236D-01-0.572D-01-0.771D+00 0.181D+01
 Gap=     0.622 Goal=   None    Shift=    0.000
 Gap=     0.629 Goal=   None    Shift=    0.000
 RMSDP=9.24D-04 MaxDP=2.17D-02 DE=-1.59D-03 OVMax= 1.53D-02

 Cycle   5  Pass 1  IDiag  1:
 E= -40.6633232623793     Delta-E=       -0.000374299376 Rises=F Damp=F
 DIIS: error= 4.05D-04 at cycle   5 NSaved=   5.
 NSaved= 5 IEnMin= 5 EnMin= -40.6633232623793     IErMin= 5 ErrMin= 4.05D-04
 ErrMax= 4.05D-04 EMaxC= 1.00D-01 BMatC= 2.12D-05 BMatP= 4.57D-04
 IDIUse=3 WtCom= 9.96D-01 WtEn= 4.05D-03
 Coeff-Com: -0.965D-02 0.293D-01 0.354D+00-0.940D+00 0.157D+01
 Coeff-En:   0.000D+00 0.000D+00 0.000D+00 0.000D+00 0.100D+01
 Coeff:     -0.961D-02 0.292D-01 0.353D+00-0.936D+00 0.156D+01
 Gap=     0.622 Goal=   None    Shift=    0.000
 Gap=     0.631 Goal=   None    Shift=    0.000
 RMSDP=1.43D-04 MaxDP=1.67D-03 DE=-3.74D-04 OVMax= 2.56D-03

 Cycle   6  Pass 1  IDiag  1:
 E= -40.6633429290959     Delta-E=       -0.000019666717 Rises=F Damp=F
 DIIS: error= 1.64D-04 at cycle   6 NSaved=   6.
 NSaved= 6 IEnMin= 6 EnMin= -40.6633429290959     IErMin= 6 ErrMin= 1.64D-04
 ErrMax= 1.64D-04 EMaxC= 1.00D-01 BMatC= 3.26D-06 BMatP= 2.12D-05
 IDIUse=3 WtCom= 9.98D-01 WtEn= 1.64D-03
 Coeff-Com:  0.367D-02-0.124D-01-0.148D+00 0.414D+00-0.101D+01 0.175D+01
 Coeff-En:   0.000D+00 0.000D+00 0.000D+00 0.000D+00 0.000D+00 0.100D+01
 Coeff:      0.367D-02-0.123D-01-0.148D+00 0.413D+00-0.101D+01 0.175D+01
 Gap=     0.623 Goal=   None    Shift=    0.000
 Gap=     0.631 Goal=   None    Shift=    0.000
 RMSDP=9.86D-05 MaxDP=1.79D-03 DE=-1.97D-05 OVMax= 1.45D-03

 Cycle   7  Pass 1  IDiag  1:
 E= -40.6633472309126     Delta-E=       -0.000004301817 Rises=F Damp=F
 DIIS: error= 8.15D-05 at cycle   7 NSaved=   7.
 NSaved= 7 IEnMin= 7 EnMin= -40.6633472309126     IErMin= 7 ErrMin= 8.15D-05
 ErrMax= 8.15D-05 EMaxC= 1.00D-01 BMatC= 5.18D-07 BMatP= 3.26D-06
 IDIUse=1 WtCom= 1.00D+00 WtEn= 0.00D+00
 Coeff-Com:  0.138D-03-0.110D-03 0.362D-02-0.196D-01 0.187D+00-0.851D+00
 Coeff-Com:  0.168D+01
 Coeff:      0.138D-03-0.110D-03 0.362D-02-0.196D-01 0.187D+00-0.851D+00
 Coeff:      0.168D+01
 Gap=     0.623 Goal=   None    Shift=    0.000
 Gap=     0.631 Goal=   None    Shift=    0.000
 RMSDP=4.82D-05 MaxDP=8.81D-04 DE=-4.30D-06 OVMax= 8.65D-04

 Cycle   8  Pass 1  IDiag  1:
 E= -40.6633479915312     Delta-E=       -0.000000760619 Rises=F Damp=F
 DIIS: error= 3.15D-05 at cycle   8 NSaved=   8.
 NSaved= 8 IEnMin= 8 EnMin= -40.6633479915312     IErMin= 8 ErrMin= 3.15D-05
 ErrMax= 3.15D-05 EMaxC= 1.00D-01 BMatC= 3.84D-08 BMatP= 5.18D-07
 IDIUse=1 WtCom= 1.00D+00 WtEn= 0.00D+00
 Coeff-Com: -0.340D-03 0.104D-02 0.121D-01-0.313D-01 0.425D-01 0.786D-01
 Coeff-Com: -0.556D+00 0.145D+01
 Coeff:     -0.340D-03 0.104D-02 0.121D-01-0.313D-01 0.425D-01 0.786D-01
 Coeff:     -0.556D+00 0.145D+01
 Gap=     0.623 Goal=   None    Shift=    0.000
 Gap=     0.631 Goal=   None    Shift=    0.000
 RMSDP=9.43D-06 MaxDP=1.51D-04 DE=-7.61D-07 OVMax= 2.73D-04

 Cycle   9  Pass 1  IDiag  1:
 E= -40.6633480376225     Delta-E=       -0.000000046091 Rises=F Damp=F
 DIIS: error= 8.69D-06 at cycle   9 NSaved=   9.
 NSaved= 9 IEnMin= 9 EnMin= -40.6633480376225     IErMin= 9 ErrMin= 8.69D-06
 ErrMax= 8.69D-06 EMaxC= 1.00D-01 BMatC= 1.87D-09 BMatP= 3.84D-08
 IDIUse=1 WtCom= 1.00D+00 WtEn= 0.00D+00
 Coeff-Com:  0.141D-03-0.453D-03-0.559D-02 0.150D-01-0.308D-01 0.285D-01
 Coeff-Com:  0.968D-01-0.485D+00 0.138D+01
 Coeff:      0.141D-03-0.453D-03-0.559D-02 0.150D-01-0.308D-01 0.285D-01
 Coeff:      0.968D-01-0.485D+00 0.138D+01
 Gap=     0.623 Goal=   None    Shift=    0.000
 Gap=     0.631 Goal=   None    Shift=    0.000
 RMSDP=1.38D-06 MaxDP=3.20D-05 DE=-4.61D-08 OVMax= 4.29D-05

 Cycle  10  Pass 1  IDiag  1:
 E= -40.6633480393604     Delta-E=       -0.000000001738 Rises=F Damp=F
 DIIS: error= 2.96D-06 at cycle  10 NSaved=  10.
 NSaved=10 IEnMin=10 EnMin= -40.6633480393604     IErMin=10 ErrMin= 2.96D-06
 ErrMax= 2.96D-06 EMaxC= 1.00D-01 BMatC= 2.68D-10 BMatP= 1.87D-09
 IDIUse=1 WtCom= 1.00D+00 WtEn= 0.00D+00
 Coeff-Com: -0.443D-04 0.136D-03 0.196D-02-0.527D-02 0.131D-01-0.229D-01
 Coeff-Com: -0.849D-02 0.166D+00-0.846D+00 0.170D+01
 Coeff:     -0.443D-04 0.136D-03 0.196D-02-0.527D-02 0.131D-01-0.229D-01
 Coeff:     -0.849D-02 0.166D+00-0.846D+00 0.170D+01
 Gap=     0.623 Goal=   None    Shift=    0.000
 Gap=     0.631 Goal=   None    Shift=    0.000
 RMSDP=6.08D-07 MaxDP=9.25D-06 DE=-1.74D-09 OVMax= 1.94D-05

 Cycle  11  Pass 1  IDiag  1:
 E= -40.6633480396739     Delta-E=       -0.000000000314 Rises=F Damp=F
 DIIS: error= 9.17D-07 at cycle  11 NSaved=  11.
 NSaved=11 IEnMin=11 EnMin= -40.6633480396739     IErMin=11 ErrMin= 9.17D-07
 ErrMax= 9.17D-07 EMaxC= 1.00D-01 BMatC= 2.73D-11 BMatP= 2.68D-10
 IDIUse=1 WtCom= 1.00D+00 WtEn= 0.00D+00
 Coeff-Com:  0.178D-04-0.535D-04-0.835D-03 0.221D-02-0.579D-02 0.116D-01
 Coeff-Com: -0.117D-02-0.691D-01 0.446D+00-0.120D+01 0.181D+01
 Coeff:      0.178D-04-0.535D-04-0.835D-03 0.221D-02-0.579D-02 0.116D-01
 Coeff:     -0.117D-02-0.691D-01 0.446D+00-0.120D+01 0.181D+01
 Gap=     0.623 Goal=   None    Shift=    0.000
 Gap=     0.631 Goal=   None    Shift=    0.000
 RMSDP=3.38D-07 MaxDP=6.26D-06 DE=-3.14D-10 OVMax= 8.51D-06

 Cycle  12  Pass 1  IDiag  1:
 E= -40.6633480397146     Delta-E=       -0.000000000041 Rises=F Damp=F
 DIIS: error= 1.49D-07 at cycle  12 NSaved=  12.
 NSaved=12 IEnMin=12 EnMin= -40.6633480397146     IErMin=12 ErrMin= 1.49D-07
 ErrMax= 1.49D-07 EMaxC= 1.00D-01 BMatC= 1.65D-12 BMatP= 2.73D-11
 IDIUse=1 WtCom= 1.00D+00 WtEn= 0.00D+00
 Coeff-Com: -0.400D-05 0.114D-04 0.204D-03-0.525D-03 0.149D-02-0.330D-02
 Coeff-Com:  0.757D-03 0.192D-01-0.139D+00 0.417D+00-0.868D+00 0.157D+01
 Coeff:     -0.400D-05 0.114D-04 0.204D-03-0.525D-03 0.149D-02-0.330D-02
 Coeff:      0.757D-03 0.192D-01-0.139D+00 0.417D+00-0.868D+00 0.157D+01
 Gap=     0.623 Goal=   None    Shift=    0.000
 Gap=     0.631 Goal=   None    Shift=    0.000
 RMSDP=1.22D-07 MaxDP=2.71D-06 DE=-4.07D-11 OVMax= 1.80D-06

 Cycle  13  Pass 1  IDiag  1:
 E= -40.6633480397168     Delta-E=       -0.000000000002 Rises=F Damp=F
 DIIS: error= 2.64D-08 at cycle  13 NSaved=  13.
 NSaved=13 IEnMin=13 EnMin= -40.6633480397168     IErMin=13 ErrMin= 2.64D-08
 ErrMax= 2.64D-08 EMaxC= 1.00D-01 BMatC= 6.63D-14 BMatP= 1.65D-12
 IDIUse=1 WtCom= 1.00D+00 WtEn= 0.00D+00
 Coeff-Com:  0.559D-06-0.134D-05-0.344D-04 0.826D-04-0.267D-03 0.698D-03
 Coeff-Com: -0.296D-03-0.357D-02 0.307D-01-0.101D+00 0.245D+00-0.627D+00
 Coeff-Com:  0.146D+01
 Coeff:      0.559D-06-0.134D-05-0.344D-04 0.826D-04-0.267D-03 0.698D-03
 Coeff:     -0.296D-03-0.357D-02 0.307D-01-0.101D+00 0.245D+00-0.627D+00
 Coeff:      0.146D+01
 Gap=     0.623 Goal=   None    Shift=    0.000
 Gap=     0.631 Goal=   None    Shift=    0.000
 RMSDP=1.56D-08 MaxDP=3.57D-07 DE=-2.15D-12 OVMax= 1.97D-07

 Cycle  14  Pass 1  IDiag  1:
 E= -40.6633480397170     Delta-E=        0.000000000000 Rises=F Damp=F
 DIIS: error= 3.10D-09 at cycle  14 NSaved=  14.
 NSaved=14 IEnMin=14 EnMin= -40.6633480397170     IErMin=14 ErrMin= 3.10D-09
 ErrMax= 3.10D-09 EMaxC= 1.00D-01 BMatC= 1.01D-15 BMatP= 6.63D-14
 IDIUse=1 WtCom= 1.00D+00 WtEn= 0.00D+00
 Coeff-Com: -0.723D-07 0.157D-06 0.504D-05-0.113D-04 0.404D-04-0.115D-03
 Coeff-Com:  0.648D-04 0.545D-03-0.526D-02 0.178D-01-0.459D-01 0.134D+00
 Coeff-Com: -0.392D+00 0.129D+01
 Coeff:     -0.723D-07 0.157D-06 0.504D-05-0.113D-04 0.404D-04-0.115D-03
 Coeff:      0.648D-04 0.545D-03-0.526D-02 0.178D-01-0.459D-01 0.134D+00
 Coeff:     -0.392D+00 0.129D+01
 Gap=     0.623 Goal=   None    Shift=    0.000
 Gap=     0.631 Goal=   None    Shift=    0.000
 RMSDP=1.17D-09 MaxDP=1.07D-08 DE=-2.06D-13 OVMax= 1.37D-08

 SCF Done:  E(UHF) =  -40.6633480397     A.U. after   14 cycles
             Convg  =    0.1171D-08             -V/T =  2.0005
             S**2   =   0.7843
 KE= 4.064373078192D+01 PE=-1.247951329901D+02 EE= 2.800725418748D+01
 Annihilation of the first spin contaminant:
 S**2 before annihilation     0.7843,   after     0.7502
 Leave Link  502 at Wed Apr 10 03:13:59 2013, MaxMem=    6291456 cpu:       0.1
 (Enter /soft/g03/g03/l801.exe)
 ExpMin= 1.61D-01 ExpMax= 3.05D+03 ExpMxC= 4.57D+02 IAcc=1 IRadAn=         1 AccDes= 1.00D-06
 HarFok:  IExCor= 205 AccDes= 1.00D-06 IRadAn=         1 IDoV=1
 ScaDFX=  1.000000  1.000000  1.000000  1.000000
 Largest valence mixing into a core orbital is  1.65D-04
 Largest core mixing into a valence orbital is  2.34D-05
 Largest valence mixing into a core orbital is  1.96D-04
 Largest core mixing into a valence orbital is  3.17D-05
 Range of M.O.s used for correlation:     2    40
 NBasis=    40 NAE=     6 NBE=     5 NFC=     1 NFV=     0
 NROrb=     39 NOA=     5 NOB=     4 NVA=    34 NVB=    35
 Leave Link  801 at Wed Apr 10 03:14:00 2013, MaxMem=    6291456 cpu:       0.0
 (Enter /soft/g03/g03/l906.exe)
 Frozen-core derivative calculation, NFC=   1 NFV=   0.
 FulOut=F Deriv=T AODrv=T NAtomX=     6
   MMem=           0  MDisk=           5 MDiskD=           5
  W3Min=       19200 MinDsk=      102260 NBas6D=          40
 NBas2D=         862    NTT=         820    LW2=     3000000
    MDV=     6280212 MDiskM=        2277 NBas2p=         862
 Disk-based method using ON**2 memory for  5 occupieds at a time.
 Permanent disk used for amplitudes=       50065 words.
 Estimated scratch disk usage=     1096240 words.
 IMap=   1   2   3   4   5   6
 Actual    scratch disk usage=     1096240 words.
 JobTyp=2 Pass  1:  I=   2 to   6 NPSUse=  1 ParTrn=F ParDer=F DoDerP=T.
 (rs|ai) integrals will be sorted in core.
 IMap=   1   2   3   4   5
 Actual    scratch disk usage=     1096240 words.
 JobTyp=3 Pass  1:  I=   2 to   5 NPSUse=  1 ParTrn=F ParDer=F DoDerP=T.
 (rs|ai) integrals will be sorted in core.
 Spin components of T(2) and E(2):
     alpha-alpha T2 =       0.6005828874D-02 E2=     -0.1835283797D-01
     alpha-beta  T2 =       0.4356669545D-01 E2=     -0.1369724504D+00
     beta-beta   T2 =       0.4184713363D-02 E2=     -0.1201285025D-01
 The integrals were generated   2 times.
 (S**2,0)=  0.78426D+00           (S**2,1)=  0.76199D+00
 E(PUHF)=      -0.40670159270D+02        E(PMP2)=      -0.40835291398D+02
 ANorm=    0.1026526784D+01
 E2 =    -0.1673381386D+00 EUMP2 =    -0.40830686178306D+02
 Leave Link  906 at Wed Apr 10 03:14:04 2013, MaxMem=    6291456 cpu:       4.0
 (Enter /soft/g03/g03/l1101.exe)
 Using compressed Sx but separate Hx and Fx, NAtomX=     6.
 Will process   7 centers per pass.
 Leave Link 1101 at Wed Apr 10 03:14:04 2013, MaxMem=    6291456 cpu:       0.1
 (Enter /soft/g03/g03/l1102.exe)
 Use density number 0.
 Leave Link 1102 at Wed Apr 10 03:14:04 2013, MaxMem=    6291456 cpu:       0.0
 (Enter /soft/g03/g03/l1110.exe)
 Forming Gx(P) for the SCF density, NAtomX=     6.
 Integral derivatives from FoFDir, PRISM(SPDF).
 Do as many integral derivatives as possible in FoFDir.
 G2DrvN: MDV=       6291406.
 G2DrvN: will do    7 centers at a time, making    1 passes doing MaxLOS=2.
 Symmetry not used in FoFDir.
 MinBra= 0 MaxBra= 2 Meth= 1.
 IRaf=       0 NMat=   1 IRICut=       1 DoRegI=T DoRafI=F ISym2E= 0 JSym2E=0.
 FoFDir/FoFCou used for L=0 through L=2.
 Leave Link 1110 at Wed Apr 10 03:14:04 2013, MaxMem=    6291456 cpu:       0.2
 (Enter /soft/g03/g03/l1002.exe)
 Minotr:  UHF wavefunction.
 DoAtom=TTTTTT
          Frozen-core window.
          Direct CPHF calculation.
          Solving linear equations simultaneously.
          Differentiating once with respect to electric field.
                with respect to dipole field.
          Differentiating once with respect to nuclear coordinates.
          Requested convergence is 1.0D-08 RMS, and 1.0D-07 maximum.
          Secondary convergence is 1.0D-12 RMS, and 1.0D-12 maximum.
          NewPWx=T KeepS1=T KeepF1=T KeepIn=T MapXYZ=F.
          MDV=       6291400 using IRadAn=       2.
          Store integrals in memory, NReq=     1493710.
 Symmetry not used in FoFDir.
 MinBra= 0 MaxBra= 2 Meth= 1.
 IRaf=       0 NMat=   1 IRICut=       1 DoRegI=T DoRafI=F ISym2E= 0 JSym2E=0.
          There are  21 degrees of freedom in the 1st order CPHF.
    18 vectors were produced by pass  0.
 AX will form  18 AO Fock derivatives at one time.
    18 vectors were produced by pass  1.
    18 vectors were produced by pass  2.
    18 vectors were produced by pass  3.
    18 vectors were produced by pass  4.
    18 vectors were produced by pass  5.
    13 vectors were produced by pass  6.
     3 vectors were produced by pass  7.
 Inv2:  IOpt= 1 Iter= 1 AM= 2.29D-15 Conv= 1.00D-12.
 Inverted reduced A of dimension  124 with in-core refinement.
 Saving first derivative matrices.
 End of Minotr Frequency-dependent properties file   721 does not exist.
 Leave Link 1002 at Wed Apr 10 03:14:04 2013, MaxMem=    6291456 cpu:       0.3
 (Enter /soft/g03/g03/l811.exe)
 MDV=     6291456.
 Form MO integral derivatives with frozen-active canonical formalism.
 MOERI=1 MOERIx=1 NAtoms=     6 NAtomA=     6 NAtomX=     6.
 Discarding MO integrals.
 MO basis two electron integral derivatives will not be stored on disk.
 IAlg= 3 DoFC=T DoPWx=T Debug=F.
 Frozen-core window:  NFC=   1 NFV=   0.
             Reordered first order wavefunction length =       207461
 In DefCFB: NBatch=  1, ICI=  6, ICA= 35, LFMax= 12
             Large arrays: LIAPS=     2425600, LIARS=     1764000 words.
  In StABat: MaxSiz= 15 MinSiz= 10 NAtomB=  3
 DoIAMN:  NPSUse=  1.
 In DefCFB: NBatch=  1, ICI=  6, ICA= 35, LFMax= 12
             Large arrays: LIAPS=     2425600, LIARS=     1764000 words.
  In StABat: MaxSiz= 15 MinSiz= 10 NAtomB=  3
 Leave Link  811 at Wed Apr 10 03:14:06 2013, MaxMem=    6291456 cpu:       1.8
 (Enter /soft/g03/g03/l804.exe)
 Frozen-core window:  NFC=   1 NFV=   0.
 Open-shell transformation, MDV=     6291456 ITran=4 ISComp=1.
 Compute canonical integrals, LenV=     5604917.
 Symmetry not used in FoFDir.
 MinBra= 0 MaxBra= 2 Meth= 1.
 IRaf=       0 NMat=   1 IRICut=       1 DoRegI=T DoRafI=F ISym2E= 0 JSym2E=0.
 Compute canonical integrals, LenV=     5604917.
 SymMOI:  orbitals are not symmetric.
 Spin components of T(2) and E(2):
     alpha-alpha T2 =       0.6005828874D-02 E2=     -0.1835283797D-01
     alpha-beta  T2 =       0.4356669545D-01 E2=     -0.1369724504D+00
     beta-beta   T2 =       0.4184713363D-02 E2=     -0.1201285025D-01
 ANorm=    0.1451728100D+01
 E2=       -0.1673381386D+00 EUMP2=       -0.40830686178306D+02
 (S**2,0)=  0.78426D+00           (S**2,1)=  0.76199D+00
 E(PUHF)=      -0.40670159270D+02        E(PMP2)=      -0.40835291398D+02
 Leave Link  804 at Wed Apr 10 03:14:06 2013, MaxMem=    6291456 cpu:       0.2
 (Enter /soft/g03/g03/l1002.exe)
 Minotr:  UHF wavefunction.
          Computing MP2 derivatives.
          Using Z-Vector for PSCF gradient.
          Skipping F1 and S1 gradient terms here.
 DoAtom=TTTTTT
          Frozen-core window.
          Using MO integrals in the linear equations.
          Forming densities via direct SCF.
          Solving linear equations simultaneously.
          Differentiating once with respect to electric field.
                with respect to dipole field.
          Differentiating once with respect to nuclear coordinates.
          Requested convergence is 1.0D-10 RMS, and 1.0D-09 maximum.
          Secondary convergence is 1.0D-12 RMS, and 1.0D-12 maximum.
          NewPWx=F KeepS1=T KeepF1=T KeepIn=T MapXYZ=F.
          MDV=       6291400 using IRadAn=       0.
          There are   1 degrees of freedom in the 1st order CPHF.
 Petite list used in FoFDir.
 MinBra= 0 MaxBra= 2 Meth= 1.
 IRaf=       0 NMat=   1 IRICut=       1 DoRegI=T DoRafI=F ISym2E= 1 JSym2E=1.
     1 vectors were produced by pass  0.
     1 vectors were produced by pass  1.
     1 vectors were produced by pass  2.
     1 vectors were produced by pass  3.
     1 vectors were produced by pass  4.
     1 vectors were produced by pass  5.
     1 vectors were produced by pass  6.
     1 vectors were produced by pass  7.
     1 vectors were produced by pass  8.
     1 vectors were produced by pass  9.
     1 vectors were produced by pass 10.
 Inv2:  IOpt= 1 Iter= 1 AM= 4.80D-16 Conv= 1.00D-12.
 Inverted reduced A of dimension   11 with in-core refinement.
 End of Minotr Frequency-dependent properties file   721 does not exist.
 Leave Link 1002 at Wed Apr 10 03:14:06 2013, MaxMem=    6291456 cpu:       0.2
 (Enter /soft/g03/g03/l1102.exe)
 Use density number 2.
 Symmetrizing basis deriv contribution to polar:
 IMax=3 JMax=2 DiffMx= 0.00D+00
 Leave Link 1102 at Wed Apr 10 03:14:06 2013, MaxMem=    6291456 cpu:       0.0
 (Enter /soft/g03/g03/l1110.exe)
 Forming Gx(P) for generalized density number  2 NAtomX=     6.
 Integral derivatives from FoFDir, PRISM(SPDF).
 Do as many integral derivatives as possible in FoFDir.
 G2DrvN: MDV=       6291406.
 G2DrvN: will do    7 centers at a time, making    1 passes doing MaxLOS=2.
 Symmetry not used in FoFDir.
 MinBra= 0 MaxBra= 2 Meth= 1.
 IRaf=       0 NMat=   1 IRICut=       1 DoRegI=T DoRafI=F ISym2E= 0 JSym2E=0.
 FoFDir/FoFCou used for L=0 through L=2.
 Leave Link 1110 at Wed Apr 10 03:14:07 2013, MaxMem=    6291456 cpu:       0.2
 (Enter /soft/g03/g03/l1112.exe)
 MP22nd: MDV=       6291456
 This link is doing NAtomX=     6 total of    21 degrees of freedom.
 Using ON3 I/O method in MakUI.
 Frozen-core window:  NFC=   1 NFV=   0.
 Using Ix for Sx.
 Use MO integrals over full window.
 Using OV2 memory method for fx*t*t/D, MaxI=  6 Force3=T.
 R2 and R3 integrals will be kept in memory, NReq=     1493220.
 Symmetry not used in FoFDir.
 MinBra= 0 MaxBra= 2 Meth= 1.
 IRaf=       0 NMat=   1 IRICut=       1 DoRegI=T DoRafI=F ISym2E= 0 JSym2E=0.
 DD1Dir will call FoFMem   1 times, MxPair=        86
 NAB=    30 NAA=    15 NBB=    10.
 Symmetry is being used.
 Discarding MO integrals.
 Leave Link 1112 at Wed Apr 10 03:14:07 2013, MaxMem=    6291456 cpu:       0.8
 (Enter /soft/g03/g03/l601.exe)
 Copying SCF densities to generalized density rwf, ISCF=1 IROHF=0.

 **********************************************************************

            Population analysis using the SCF density.

 **********************************************************************

 Orbital symmetries:
 Alpha Orbitals:
       Occupied  (A) (A) (A) (A) (A) (A)
       Virtual   (A) (A) (A) (A) (A) (A) (A) (A) (A) (A) (A) (A)
                 (A) (A) (A) (A) (A) (A) (A) (A) (A) (A) (A) (A)
                 (A) (A) (A) (A) (A) (A) (A) (A) (A) (A)
 Beta  Orbitals:
       Occupied  (A) (A) (A) (A) (A)
       Virtual   (A) (A) (A) (A) (A) (A) (A) (A) (A) (A) (A) (A)
                 (A) (A) (A) (A) (A) (A) (A) (A) (A) (A) (A) (A)
                 (A) (A) (A) (A) (A) (A) (A) (A) (A) (A) (A)
 The electronic state is 2-A.
 Alpha  occ. eigenvalues --  -11.23845  -0.96827  -0.62651  -0.57271  -0.57271
 Alpha  occ. eigenvalues --   -0.36543
 Alpha virt. eigenvalues --    0.25724   0.31708   0.31708   0.36118   0.71351
 Alpha virt. eigenvalues --    0.71351   0.74839   0.91290   1.13681   1.13681
 Alpha virt. eigenvalues --    1.17437   1.18923   1.42041   1.61381   1.61381
 Alpha virt. eigenvalues --    2.07501   2.07501   2.10871   2.31530   2.31530
 Alpha virt. eigenvalues --    2.32125   2.54218   2.54218   2.80758   2.84696
 Alpha virt. eigenvalues --    2.95785   2.95785   3.17613   3.17613   3.56268
 Alpha virt. eigenvalues --    3.79703   3.79703   4.15204   4.91671
  Beta  occ. eigenvalues --  -11.22237  -0.91711  -0.56317  -0.56317  -0.52700
  Beta virt. eigenvalues --    0.10387   0.26735   0.32535   0.32535   0.41010
  Beta virt. eigenvalues --    0.71647   0.71647   0.82462   0.99927   1.14695
  Beta virt. eigenvalues --    1.14695   1.18914   1.21647   1.44565   1.64317
  Beta virt. eigenvalues --    1.64317   2.11717   2.11717   2.15777   2.31870
  Beta virt. eigenvalues --    2.32621   2.32621   2.57653   2.57653   2.82812
  Beta virt. eigenvalues --    2.87965   2.96566   2.96567   3.18522   3.18522
  Beta virt. eigenvalues --    3.57100   3.80354   3.80354   4.18315   4.93442
     Alpha Molecular Orbital Coefficients
                           1         2         3         4         5
                        (A)--O    (A)--O    (A)--O    (A)--O    (A)--O
     EIGENVALUES --   -11.23845  -0.96827  -0.62651  -0.57271  -0.57271
   1 1   C  1S          0.99555  -0.19707   0.02851   0.00000   0.00000
   2        2S          0.02920   0.38094  -0.04556   0.00000   0.00000
   3        2PX        -0.00012  -0.00964  -0.13021   0.29710   0.26859
   4        2PY         0.00012   0.00972   0.13117   0.33012  -0.22557
   5        2PZ         0.00022   0.01751   0.23636  -0.01954   0.27315
   6        3S         -0.01394   0.37960  -0.06278   0.00000   0.00000
   7        3PX         0.00042  -0.00315  -0.06462   0.14437   0.13052
   8        3PY        -0.00042   0.00317   0.06510   0.16041  -0.10961
   9        3PZ        -0.00076   0.00572   0.11731  -0.00949   0.13273
  10        4XX        -0.00200  -0.00141  -0.00309  -0.00051   0.02187
  11        4YY        -0.00200  -0.00139  -0.00300  -0.00850  -0.01353
  12        4ZZ        -0.00188   0.00202   0.01134   0.00900  -0.00834
  13        4XY        -0.00006  -0.00174  -0.00732  -0.02025  -0.00743
  14        4XZ        -0.00011  -0.00313  -0.01318   0.00166   0.00967
  15        4YZ         0.00011   0.00316   0.01328  -0.01599   0.01161
  16 2   H  1S          0.00001   0.13490  -0.07338  -0.27365  -0.02189
  17        2S          0.00239   0.03597  -0.05397  -0.21989  -0.01759
  18        3PX        -0.00012   0.00782  -0.00558  -0.00706   0.00294
  19        3PY        -0.00013   0.01029  -0.00195  -0.00978  -0.00439
  20        3PZ        -0.00001   0.00247   0.00318  -0.00350   0.00366
  21 3   H  1S          0.00001   0.13490  -0.07338   0.11787   0.24793
  22        2S          0.00239   0.03597  -0.05397   0.09471   0.19922
  23        3PX         0.00016  -0.01198   0.00268  -0.00303  -0.01148
  24        3PY        -0.00003   0.00312   0.00104   0.00658   0.00064
  25        3PZ         0.00008  -0.00445   0.00607  -0.00315  -0.00212
  26 4   H  1S          0.00001   0.13490  -0.07339   0.15578  -0.22605
  27        2S          0.00239   0.03597  -0.05398   0.12517  -0.18163
  28        3PX        -0.00001   0.00019  -0.00240   0.00451   0.00349
  29        3PY         0.00014  -0.00940   0.00626  -0.00300   0.00798
  30        3PZ        -0.00011   0.00920   0.00038   0.00702  -0.00667
  31 5   H  1S         -0.00003   0.10519   0.23725   0.00000   0.00000
  32        2S          0.00412   0.02792   0.16389   0.00000   0.00000
  33        3PX        -0.00018   0.00483  -0.00099   0.00379   0.00343
  34        3PY         0.00018  -0.00487   0.00100   0.00421  -0.00288
  35        3PZ         0.00033  -0.00877   0.00180  -0.00025   0.00349
  36 6   H  1S         -0.00031   0.04056   0.27190   0.00000   0.00000
  37        2S         -0.00128   0.02234   0.29232   0.00000   0.00000
  38        3PX        -0.00011   0.00157   0.00457   0.00062   0.00056
  39        3PY         0.00011  -0.00158  -0.00460   0.00068  -0.00047
  40        3PZ         0.00020  -0.00285  -0.00829  -0.00004   0.00057
                           6         7         8         9        10
                        (A)--O    (A)--V    (A)--V    (A)--V    (A)--V
     EIGENVALUES --    -0.36543   0.25724   0.31708   0.31708   0.36118
   1 1   C  1S          0.03858  -0.14456   0.00000   0.00000   0.05957
   2        2S         -0.08272   0.10492   0.00000   0.00000  -0.04171
   3        2PX         0.18731   0.05293   0.11360   0.25163   0.08044
   4        2PY        -0.18870  -0.05332  -0.21766   0.16907  -0.08104
   5        2PZ        -0.34001  -0.09609   0.18338   0.04479  -0.14602
   6        3S         -0.22538   2.58656   0.00001   0.00000  -1.11142
   7        3PX         0.14623   0.16100   0.56683   1.25555   0.59711
   8        3PY        -0.14732  -0.16219  -1.08604   0.84359  -0.60154
   9        3PZ        -0.26545  -0.29225   0.91499   0.22350  -1.08390
  10        4XX         0.00416  -0.01249  -0.00839  -0.00444   0.00014
  11        4YY         0.00409  -0.01246   0.00165   0.00582   0.00028
  12        4ZZ        -0.00711  -0.00749   0.00674  -0.00139   0.02286
  13        4XY         0.00571  -0.00253   0.00203   0.00801  -0.01151
  14        4XZ         0.01029  -0.00456  -0.00294   0.00054  -0.02075
  15        4YZ        -0.01037   0.00460  -0.00669   0.00592   0.02090
  16 2   H  1S          0.04402  -0.01500  -0.01584   0.06730  -0.06559
  17        2S          0.07598  -1.19274  -0.44489   1.89017  -0.13170
  18        3PX         0.00535   0.00124   0.00290   0.00700   0.00170
  19        3PY        -0.00120  -0.00277  -0.00563   0.00400  -0.00210
  20        3PZ        -0.00587  -0.00365   0.00501   0.00043  -0.00344
  21 3   H  1S          0.04402  -0.01500  -0.05037  -0.04737  -0.06559
  22        2S          0.07598  -1.19275  -1.41449  -1.33037  -0.13171
  23        3PX         0.00079   0.00290   0.00265   0.00631   0.00212
  24        3PY        -0.00285  -0.00217  -0.00542   0.00475  -0.00194
  25        3PZ        -0.00747  -0.00306   0.00537   0.00169  -0.00329
  26 4   H  1S          0.04402  -0.01500   0.06621  -0.01993  -0.06560
  27        2S          0.07598  -1.19275   1.85938  -0.55980  -0.13170
  28        3PX         0.00359   0.00188   0.00339   0.00651   0.00186
  29        3PY        -0.00574  -0.00112  -0.00610   0.00456  -0.00168
  30        3PZ        -0.00432  -0.00421   0.00407   0.00141  -0.00358
  31 5   H  1S         -0.06442   0.02757   0.00000   0.00000   0.24979
  32        2S         -0.10520  -0.36962  -0.00001   0.00000   2.99143
  33        3PX        -0.01257  -0.00070   0.00198   0.00439   0.00021
  34        3PY         0.01266   0.00071  -0.00379   0.00295  -0.00022
  35        3PZ         0.02281   0.00128   0.00320   0.00078  -0.00039
  36 6   H  1S          0.30938   0.03866   0.00000   0.00000   0.04584
  37        2S          0.61188   0.20149   0.00000   0.00000  -1.70811
  38        3PX         0.00030   0.00097   0.00215   0.00476   0.00817
  39        3PY        -0.00030  -0.00097  -0.00412   0.00320  -0.00823
  40        3PZ        -0.00054  -0.00175   0.00347   0.00085  -0.01483
                          11        12        13        14        15
                        (A)--V    (A)--V    (A)--V    (A)--V    (A)--V
     EIGENVALUES --     0.71351   0.71351   0.74839   0.91290   1.13681
   1 1   C  1S          0.00000   0.00000   0.01700   0.02764   0.00000
   2        2S          0.00000   0.00000  -0.01896   0.17343   0.00001
   3        2PX        -0.64173   0.07567   0.40550  -0.07697  -0.33622
   4        2PY        -0.22343  -0.60513  -0.40851   0.07754   0.53830
   5        2PZ        -0.22952   0.37751  -0.73609   0.13972  -0.48396
   6        3S          0.00000  -0.00001  -0.22142  -0.49516  -0.00002
   7        3PX         1.30024  -0.15331  -0.56011  -0.06850   0.54777
   8        3PY         0.45271   1.22608   0.56425   0.06901  -0.87700
   9        3PZ         0.46504  -0.76489   1.01675   0.12434   0.78848
  10        4XX        -0.03721   0.04834   0.01643   0.04764   0.21695
  11        4YY         0.04064  -0.01143   0.01615   0.04741  -0.09132
  12        4ZZ        -0.00342  -0.03691  -0.02780   0.01318  -0.12563
  13        4XY         0.05670   0.01192   0.02242   0.01746  -0.03633
  14        4XZ        -0.01417   0.01930   0.04040   0.03147   0.08493
  15        4YZ         0.01946   0.05252  -0.04070  -0.03170   0.15576
  16 2   H  1S          0.42380   0.25281   0.18930   0.21779   0.12902
  17        2S          0.18791   0.11209   0.04661   0.09024  -0.26988
  18        3PX         0.02909   0.00419   0.00460  -0.01865  -0.04575
  19        3PY         0.02043   0.02573   0.00571  -0.01394   0.01747
  20        3PZ         0.00994  -0.00884   0.00114   0.00384  -0.04574
  21 3   H  1S         -0.43084   0.24062   0.18930   0.21779   0.59159
  22        2S         -0.19103   0.10668   0.04661   0.09024  -1.23748
  23        3PX         0.03501  -0.01144  -0.00668   0.01702   0.11009
  24        3PY         0.00210   0.01978   0.00163  -0.00102   0.00598
  25        3PZ         0.01278  -0.01430  -0.00280   0.01632   0.00760
  26 4   H  1S          0.00704  -0.49342   0.18931   0.21779  -0.72063
  27        2S          0.00312  -0.21878   0.04662   0.09024   1.50738
  28        3PX         0.01843  -0.00248   0.00025  -0.00491  -0.02692
  29        3PY         0.00620   0.03231  -0.00550   0.02155  -0.08335
  30        3PZ         0.00680  -0.02541   0.00498  -0.00829   0.09200
  31 5   H  1S          0.00000  -0.00001  -0.19233   0.29324   0.00000
  32        2S          0.00000   0.00000   0.02390  -0.28567   0.00001
  33        3PX         0.02574  -0.00304  -0.04089  -0.04277  -0.01594
  34        3PY         0.00896   0.02427   0.04119   0.04308   0.02552
  35        3PZ         0.00921  -0.01514   0.07422   0.07764  -0.02294
  36 6   H  1S          0.00000   0.00000   0.02589   1.08223   0.00000
  37        2S          0.00000   0.00000  -0.31745  -0.96934   0.00000
  38        3PX         0.02360  -0.00278   0.00656   0.00948   0.00534
  39        3PY         0.00822   0.02226  -0.00661  -0.00955  -0.00855
  40        3PZ         0.00844  -0.01388  -0.01191  -0.01722   0.00769
                          16        17        18        19        20
                        (A)--V    (A)--V    (A)--V    (A)--V    (A)--V
     EIGENVALUES --     1.13681   1.17437   1.18923   1.42041   1.61381
   1 1   C  1S          0.00000   0.05350  -0.03029  -0.12703   0.00000
   2        2S         -0.00001  -1.24806   0.00695  -1.89920   0.00001
   3        2PX        -0.63562  -0.13340  -0.15272   0.11608   0.02164
   4        2PY        -0.47488   0.13440   0.15385  -0.11694   0.01481
   5        2PZ        -0.08661   0.24215   0.27721  -0.21071   0.00371
   6        3S          0.00001   2.52700  -0.21085   5.38140  -0.00002
   7        3PX         1.03556   0.24581   0.47348  -0.45096  -0.02622
   8        3PY         0.77368  -0.24764  -0.47698   0.45430  -0.01794
   9        3PZ         0.14111  -0.44619  -0.85946   0.81859  -0.00449
  10        4XX         0.06602   0.01405   0.00889  -0.12176  -0.37483
  11        4YY        -0.12630   0.01343   0.00810  -0.12148   0.15733
  12        4ZZ         0.06028  -0.08119  -0.11375  -0.07724   0.21749
  13        4XY        -0.21116   0.04827   0.06216  -0.02256  -0.18789
  14        4XZ         0.02074   0.08697   0.11200  -0.04066   0.48376
  15        4YZ        -0.13882  -0.08761  -0.11283   0.04096   0.21835
  16 2   H  1S         -0.75761   0.52963  -0.02322  -0.43730   0.01347
  17        2S          1.58474  -1.01716  -0.38612  -0.66425  -0.02304
  18        3PX         0.05914  -0.06355  -0.02400  -0.00104   0.12915
  19        3PY         0.11305  -0.07057   0.01877   0.00731  -0.04409
  20        3PZ         0.03352  -0.00809   0.03861   0.00763  -0.22936
  21 3   H  1S          0.49055   0.52963  -0.02322  -0.43730  -0.00935
  22        2S         -1.02610  -1.01716  -0.38613  -0.66425   0.01601
  23        3PX         0.06264   0.08314  -0.01811  -0.00786  -0.09488
  24        3PY        -0.06899  -0.01744   0.02091   0.00484  -0.06378
  25        3PZ         0.03156   0.04323   0.04067   0.00525   0.20879
  26 4   H  1S          0.26707   0.52962  -0.02322  -0.43730  -0.00411
  27        2S         -0.55865  -1.01713  -0.38613  -0.66426   0.00705
  28        3PX        -0.05105  -0.00703  -0.02173  -0.00367  -0.21312
  29        3PY         0.00878   0.07535   0.02463   0.00052  -0.01447
  30        3PZ        -0.05545  -0.05794   0.03661   0.00995  -0.01006
  31 5   H  1S          0.00000   0.05770  -1.23165   0.06213   0.00000
  32        2S         -0.00001   0.08535   3.00954  -2.75766   0.00001
  33        3PX        -0.03013  -0.00404  -0.01466  -0.03781   0.21937
  34        3PY        -0.02251   0.00407   0.01477   0.03809   0.15006
  35        3PZ        -0.00411   0.00733   0.02661   0.06864   0.03757
  36 6   H  1S          0.00000  -0.31497   0.34108   0.39748   0.00000
  37        2S          0.00000   0.23661  -1.38843   0.61346   0.00000
  38        3PX         0.01010   0.01390  -0.04923  -0.02411   0.07615
  39        3PY         0.00755  -0.01400   0.04960   0.02429   0.05209
  40        3PZ         0.00138  -0.02523   0.08937   0.04377   0.01304
                          21        22        23        24        25
                        (A)--V    (A)--V    (A)--V    (A)--V    (A)--V
     EIGENVALUES --     1.61381   2.07501   2.07501   2.10871   2.31530
   1 1   C  1S          0.00000   0.00000   0.00000   0.05495   0.00000
   2        2S         -0.00001   0.00001  -0.00001  -0.01425   0.00000
   3        2PX        -0.01004   0.06698   0.00481   0.07098   0.01360
   4        2PY         0.01866   0.01099   0.06612  -0.07151  -0.07901
   5        2PZ        -0.01589   0.03080  -0.03405  -0.12885   0.05134
   6        3S          0.00003  -0.00002   0.00003  -0.69303   0.00000
   7        3PX         0.01216  -0.18596  -0.01336  -0.06998  -0.09578
   8        3PY        -0.02260  -0.03051  -0.18360   0.07050   0.55641
   9        3PZ         0.01925  -0.08552   0.09455   0.12704  -0.36156
  10        4XX        -0.05670   0.12756  -0.00116  -0.06138  -0.39492
  11        4YY         0.52274  -0.02923  -0.11533  -0.05891   0.10984
  12        4ZZ        -0.46604  -0.09834   0.11649   0.31752   0.28508
  13        4XY        -0.33192  -0.06948   0.05642  -0.19204  -0.07954
  14        4XZ        -0.13856  -0.08727  -0.04692  -0.34603  -0.15675
  15        4YZ         0.01485  -0.05350  -0.09935   0.34860  -0.40651
  16 2   H  1S          0.00302   0.03418   0.03039   0.26715   0.26410
  17        2S         -0.00517  -0.11219  -0.09978  -0.00027   0.02497
  18        3PX         0.14580  -0.15782  -0.09012   0.02166   0.02739
  19        3PY        -0.13011   0.06344   0.00472  -0.10784  -0.25934
  20        3PZ         0.07958   0.12507   0.16761  -0.11821   0.24156
  21 3   H  1S          0.01015  -0.04341   0.01440   0.26715   0.29064
  22        2S         -0.01737   0.14251  -0.04727  -0.00028   0.02748
  23        3PX        -0.00246   0.02835  -0.03420   0.11540   0.01271
  24        3PY        -0.20302  -0.11529  -0.02577  -0.07387  -0.26041
  25        3PZ        -0.13365  -0.23443   0.09963  -0.08540   0.24236
  26 4   H  1S         -0.01317   0.00924  -0.04480   0.26715  -0.55475
  27        2S          0.02255  -0.03031   0.14705  -0.00027  -0.05245
  28        3PX        -0.06035  -0.08481   0.10894   0.05778   0.10786
  29        3PY         0.17895   0.01669  -0.19052  -0.01457  -0.33975
  30        3PZ         0.18535   0.01082  -0.15830  -0.15006   0.07459
  31 5   H  1S          0.00001  -0.00001   0.00000  -0.29577   0.00000
  32        2S         -0.00003   0.00002  -0.00002   0.74134   0.00000
  33        3PX        -0.10178   0.44564   0.03199   0.14867   0.01353
  34        3PY         0.18911   0.07311   0.43998  -0.14978  -0.07862
  35        3PZ        -0.16102   0.20492  -0.22655  -0.26988   0.05109
  36 6   H  1S          0.00000   0.00000   0.00000   0.30406   0.00000
  37        2S          0.00001  -0.00001   0.00000  -0.53390   0.00000
  38        3PX        -0.03533   0.63243   0.04540  -0.17152   0.03412
  39        3PY         0.06565   0.10376   0.62441   0.17278  -0.19819
  40        3PZ        -0.05590   0.29082  -0.32150   0.31135   0.12878
                          26        27        28        29        30
                        (A)--V    (A)--V    (A)--V    (A)--V    (A)--V
     EIGENVALUES --     2.31530   2.32125   2.54218   2.54218   2.80758
   1 1   C  1S          0.00000   0.00000   0.00000   0.00000   0.06136
   2        2S          0.00000   0.00000   0.00000   0.00000   0.21009
   3        2PX        -0.08468   0.00000   0.03192  -0.07191   0.05915
   4        2PY        -0.03299   0.00000  -0.06233  -0.04778  -0.05959
   5        2PZ        -0.02834   0.00000   0.05217  -0.01310  -0.10736
   6        3S          0.00000   0.00000   0.00000   0.00000  -1.39283
   7        3PX         0.59637   0.00001  -0.02325   0.05239   0.40794
   8        3PY         0.23236   0.00003   0.04541   0.03481  -0.41097
   9        3PZ         0.19958  -0.00001  -0.03801   0.00954  -0.74050
  10        4XX         0.27318  -0.00001  -0.22306   0.20129   0.06981
  11        4YY        -0.31626   0.00000  -0.05957  -0.19415   0.06841
  12        4ZZ         0.04308   0.00001   0.28263  -0.00714  -0.14645
  13        4XY        -0.45169  -0.00002   0.12263  -0.18963   0.10962
  14        4XZ         0.11115   0.00000  -0.05682  -0.11177   0.19752
  15        4YZ        -0.16823  -0.00002  -0.19335  -0.20932  -0.19899
  16 2   H  1S          0.48809   0.00002   0.04566   0.18861   0.02397
  17        2S          0.04615   0.00000  -0.02941  -0.12146   0.09634
  18        3PX        -0.35642  -0.31881  -0.02095   0.22147  -0.17317
  19        3PY        -0.06037   0.32808   0.01387  -0.25970   0.19121
  20        3PZ        -0.01030  -0.35770  -0.17692  -0.38514   0.32969
  21 3   H  1S         -0.47276   0.00000   0.14051  -0.13385   0.02397
  22        2S         -0.04470   0.00000  -0.09049   0.08620   0.09633
  23        3PX        -0.25253  -0.19987   0.21303  -0.14018  -0.19142
  24        3PY        -0.17497  -0.51598  -0.08883   0.24663   0.18459
  25        3PZ        -0.18977   0.17625  -0.31853   0.24809   0.32330
  26 4   H  1S         -0.01532  -0.00002  -0.18617  -0.05476   0.02397
  27        2S         -0.00145   0.00000   0.11989   0.03526   0.09635
  28        3PX        -0.31230   0.51865  -0.25006   0.04936  -0.18021
  29        3PY        -0.12359   0.18786   0.18821   0.09988   0.17304
  30        3PZ        -0.10824   0.18146   0.40065   0.16085   0.33592
  31 5   H  1S          0.00000   0.00000  -0.00001   0.00000   0.52554
  32        2S          0.00000   0.00000   0.00000   0.00001   1.40654
  33        3PX        -0.08427   0.00000   0.17380  -0.39161   0.13081
  34        3PY        -0.03283   0.00000  -0.33944  -0.26021  -0.13177
  35        3PZ        -0.02820   0.00000   0.28412  -0.07132  -0.23747
  36 6   H  1S          0.00000   0.00000   0.00000   0.00000  -0.01791
  37        2S          0.00000   0.00000   0.00000   0.00000  -0.60730
  38        3PX        -0.21243   0.00000  -0.20639   0.46503  -0.28479
  39        3PY        -0.08277  -0.00001   0.40309   0.30900   0.28689
  40        3PZ        -0.07109   0.00000  -0.33740   0.08470   0.51698
                          31        32        33        34        35
                        (A)--V    (A)--V    (A)--V    (A)--V    (A)--V
     EIGENVALUES --     2.84696   2.95785   2.95785   3.17613   3.17613
   1 1   C  1S         -0.01834   0.00000   0.00000   0.00000   0.00000
   2        2S          0.10779   0.00000   0.00000   0.00000   0.00000
   3        2PX         0.02486  -0.11166   0.02430  -0.11832  -0.09443
   4        2PY        -0.02504  -0.04968  -0.10269   0.06399  -0.13690
   5        2PZ        -0.04512  -0.03394   0.07038  -0.10069   0.02396
   6        3S          0.27208  -0.00001   0.00005   0.00001  -0.00001
   7        3PX         0.10599  -0.51074   0.11114  -0.17027  -0.13589
   8        3PY        -0.10677  -0.22726  -0.46969   0.09209  -0.19701
   9        3PZ        -0.19240  -0.15524   0.32192  -0.14490   0.03447
  10        4XX        -0.11975   0.27020  -0.24757  -0.04571  -0.44463
  11        4YY        -0.11710  -0.22606  -0.05895  -0.53421   0.41658
  12        4ZZ         0.28897  -0.04414   0.30652   0.57992   0.02805
  13        4XY        -0.20717  -0.28669   0.06078   0.20691  -0.45543
  14        4XZ        -0.37328  -0.06472  -0.10510   0.44487   0.43983
  15        4YZ         0.37605  -0.18914  -0.29264   0.13789   0.16341
  16 2   H  1S          0.06069   0.04042   0.01907  -0.00441  -0.01785
  17        2S         -0.14733  -0.40993  -0.19347  -0.05611  -0.22734
  18        3PX        -0.37657   0.19647  -0.22278   0.23777  -0.45388
  19        3PY         0.01262  -0.31059   0.17811  -0.34516   0.06011
  20        3PZ         0.34719  -0.09986  -0.40113   0.44653   0.21899
  21 3   H  1S          0.06069  -0.03673   0.02546   0.01766   0.00511
  22        2S         -0.14733   0.37251  -0.25829   0.22494   0.06508
  23        3PX         0.02312  -0.07491   0.26961  -0.12076   0.18669
  24        3PY         0.15740   0.39201   0.29012  -0.28518   0.48967
  25        3PZ         0.48703   0.08691  -0.25221  -0.40533  -0.31272
  26 4   H  1S          0.06069  -0.00369  -0.04454  -0.01326   0.01274
  27        2S         -0.14734   0.03743   0.45174  -0.16883   0.16227
  28        3PX        -0.22255   0.45157  -0.17155   0.23064   0.54464
  29        3PY         0.41024   0.17360   0.05883   0.44230  -0.14752
  30        3PZ         0.21136   0.18716   0.29210   0.25466   0.02334
  31 5   H  1S         -0.30153   0.00000  -0.00002   0.00000   0.00000
  32        2S         -0.02491   0.00001  -0.00004  -0.00001   0.00001
  33        3PX        -0.04414   0.59827  -0.13021  -0.20495  -0.16357
  34        3PY         0.04446   0.26620   0.55020   0.11084  -0.23714
  35        3PZ         0.08013   0.18184  -0.37706  -0.17441   0.04149
  36 6   H  1S         -0.02775   0.00000   0.00000   0.00000   0.00000
  37        2S          0.17117   0.00000   0.00002   0.00001   0.00000
  38        3PX         0.16725  -0.30381   0.06613   0.10597   0.08458
  39        3PY        -0.16849  -0.13518  -0.27941  -0.05732   0.12262
  40        3PZ        -0.30361  -0.09234   0.19147   0.09018  -0.02145
                          36        37        38        39        40
                        (A)--V    (A)--V    (A)--V    (A)--V    (A)--V
     EIGENVALUES --     3.56268   3.79703   3.79703   4.15204   4.91671
   1 1   C  1S         -0.13054   0.00000   0.00000  -0.11814  -0.46789
   2        2S          1.05190   0.00001   0.00000   0.58827   2.70461
   3        2PX         0.11510   0.17812  -0.86201  -0.18460   0.00731
   4        2PY        -0.11595  -0.79496  -0.37435   0.18597  -0.00737
   5        2PZ        -0.20893   0.53931  -0.26711   0.33510  -0.01328
   6        3S          0.79990   0.00000   0.00000   0.31181   2.37656
   7        3PX         0.10461   0.08973  -0.43423  -0.10207  -0.09844
   8        3PY        -0.10538  -0.40046  -0.18858   0.10282   0.09916
   9        3PZ        -0.18989   0.27167  -0.13456   0.18528   0.17868
  10        4XX        -0.00255   0.81669  -0.45995  -0.61833  -2.00171
  11        4YY        -0.00496  -0.30879   0.60770  -0.61517  -2.00142
  12        4ZZ        -0.37440  -0.50790  -0.14775  -0.13174  -1.95847
  13        4XY         0.18847   0.16064   0.90722  -0.24663  -0.02191
  14        4XZ         0.33960   0.32061  -0.26492  -0.44439  -0.03949
  15        4YZ        -0.34212   0.77621   0.34101   0.44768   0.03978
  16 2   H  1S         -0.34481  -0.35661  -0.73547   0.24801   0.23596
  17        2S         -0.33714  -0.20306  -0.41880  -0.00216  -0.38050
  18        3PX        -0.40974  -0.22552  -0.61795   0.17103   0.17380
  19        3PY        -0.57608  -0.45497  -0.78105   0.22204   0.22878
  20        3PZ        -0.16322  -0.03888  -0.25168   0.05123   0.05494
  21 3   H  1S         -0.34481  -0.45863   0.67656   0.24801   0.23596
  22        2S         -0.33714  -0.26116   0.38526  -0.00216  -0.38050
  23        3PX         0.66798   0.55253  -0.88957  -0.25874  -0.26636
  24        3PY        -0.18570  -0.24936   0.17552   0.06636   0.06934
  25        3PZ         0.21383   0.22781  -0.27035  -0.09913  -0.09905
  26 4   H  1S         -0.34481   0.81523   0.05891   0.24801   0.23596
  27        2S         -0.33714   0.46423   0.03354  -0.00216  -0.38050
  28        3PX         0.00555   0.00686  -0.10827   0.00542   0.00419
  29        3PY         0.49604  -0.78579  -0.09618  -0.20550  -0.20910
  30        3PZ        -0.52945   0.82199   0.02134   0.19728   0.20452
  31 5   H  1S          0.19269   0.00000   0.00000   0.08686   0.01372
  32        2S          0.22309   0.00000   0.00000  -0.15734  -0.86090
  33        3PX        -0.09076  -0.01082   0.05235  -0.54084   0.22014
  34        3PY         0.09143   0.04828   0.02273   0.54484  -0.22177
  35        3PZ         0.16476  -0.03275   0.01622   0.98177  -0.39962
  36 6   H  1S         -0.11279   0.00000   0.00000  -0.38230   0.19746
  37        2S         -0.13859   0.00000   0.00000  -0.07538   0.28805
  38        3PX        -0.14629  -0.00034   0.00163  -0.35305   0.13439
  39        3PY         0.14737   0.00150   0.00071   0.35567  -0.13538
  40        3PZ         0.26555  -0.00102   0.00050   0.64089  -0.24396
     Beta Molecular Orbital Coefficients.
                           1         2         3         4         5
                        (A)--O    (A)--O    (A)--O    (A)--O    (A)--O
     EIGENVALUES --   -11.22237  -0.91711  -0.56317  -0.56317  -0.52700
   1 1   C  1S          0.99605  -0.18861   0.00000   0.00000   0.02374
   2        2S          0.02655   0.34969   0.00000   0.00000  -0.05501
   3        2PX         0.00004   0.01810   0.28905   0.25072  -0.11010
   4        2PY        -0.00004  -0.01823   0.31089  -0.22193   0.11092
   5        2PZ        -0.00007  -0.03285  -0.01330   0.26128   0.19985
   6        3S         -0.01422   0.33069   0.00000   0.00000  -0.11871
   7        3PX         0.00048   0.00042   0.13762   0.11937  -0.04158
   8        3PY        -0.00048  -0.00042   0.14802  -0.10566   0.04189
   9        3PZ        -0.00087  -0.00075  -0.00633   0.12440   0.07548
  10        4XX        -0.00112   0.00244   0.00267   0.02448  -0.00275
  11        4YY        -0.00112   0.00239  -0.01182  -0.01139  -0.00265
  12        4ZZ        -0.00163  -0.00596   0.00915  -0.01309   0.01276
  13        4XY         0.00026   0.00426  -0.02051  -0.00967  -0.00786
  14        4XZ         0.00047   0.00768  -0.00105   0.00868  -0.01417
  15        4YZ        -0.00047  -0.00773  -0.01892   0.01283   0.01427
  16 2   H  1S         -0.00007   0.15047  -0.28473  -0.01689  -0.07568
  17        2S          0.00240   0.05717  -0.24159  -0.01433  -0.06811
  18        3PX        -0.00015   0.00789  -0.00589   0.00330  -0.00522
  19        3PY        -0.00019   0.01043  -0.01003  -0.00435  -0.00184
  20        3PZ        -0.00003   0.00253  -0.00459   0.00382   0.00296
  21 3   H  1S         -0.00007   0.15047   0.12774   0.25503  -0.07568
  22        2S          0.00240   0.05717   0.10838   0.21639  -0.06811
  23        3PX         0.00022  -0.01214  -0.00322  -0.01152   0.00252
  24        3PY        -0.00005   0.00318   0.00704   0.00090   0.00096
  25        3PZ         0.00010  -0.00448  -0.00258  -0.00066   0.00566
  26 4   H  1S         -0.00007   0.15047   0.15700  -0.23814  -0.07568
  27        2S          0.00240   0.05717   0.13321  -0.20206  -0.06811
  28        3PX        -0.00001   0.00017   0.00438   0.00412  -0.00223
  29        3PY         0.00018  -0.00950  -0.00210   0.00708   0.00585
  30        3PZ        -0.00016   0.00934   0.00738  -0.00744   0.00033
  31 5   H  1S          0.00005   0.10741   0.00000   0.00000   0.32965
  32        2S          0.00436   0.04905   0.00000   0.00000   0.47012
  33        3PX        -0.00014   0.00292   0.00355   0.00308  -0.00128
  34        3PY         0.00014  -0.00294   0.00382  -0.00273   0.00128
  35        3PZ         0.00026  -0.00530  -0.00016   0.00321   0.00232
  36 6   H  1S         -0.00023   0.02858   0.00000   0.00000   0.14566
  37        2S         -0.00130   0.01316   0.00000   0.00000   0.07081
  38        3PX        -0.00010   0.00205   0.00069   0.00060   0.00665
  39        3PY         0.00010  -0.00206   0.00074  -0.00053  -0.00670
  40        3PZ         0.00017  -0.00372  -0.00003   0.00062  -0.01207
                           6         7         8         9        10
                        (A)--V    (A)--V    (A)--V    (A)--V    (A)--V
     EIGENVALUES --     0.10387   0.26735   0.32535   0.32535   0.41010
   1 1   C  1S          0.06092  -0.14294   0.00000   0.00000   0.06051
   2        2S         -0.08466   0.08973   0.00000   0.00000  -0.01871
   3        2PX         0.13304   0.06440   0.11329   0.24500   0.05784
   4        2PY        -0.13402  -0.06488  -0.21130   0.16721  -0.05827
   5        2PZ        -0.24149  -0.11691   0.17967   0.04217  -0.10499
   6        3S         -0.48646   2.57869   0.00000   0.00000  -1.16854
   7        3PX         0.18757   0.18559   0.59019   1.27638   0.64435
   8        3PY        -0.18896  -0.18697  -1.10080   0.87114  -0.64912
   9        3PZ        -0.34048  -0.33689   0.93605   0.21968  -1.16964
  10        4XX        -0.00121  -0.01057  -0.00416   0.00168  -0.00134
  11        4YY        -0.00120  -0.01057   0.00568   0.00101  -0.00119
  12        4ZZ         0.00040  -0.01159  -0.00152  -0.00269   0.02038
  13        4XY        -0.00082   0.00052  -0.00224   0.00521  -0.01101
  14        4XZ        -0.00147   0.00094  -0.00256  -0.00434  -0.01983
  15        4YZ         0.00148  -0.00094  -0.00271   0.00050   0.01998
  16 2   H  1S          0.01527  -0.00726  -0.01330   0.05887  -0.06724
  17        2S          0.15035  -1.19855  -0.43091   1.90801  -0.09859
  18        3PX         0.00560   0.00196   0.00363   0.00666   0.00241
  19        3PY        -0.00242  -0.00272  -0.00629   0.00446  -0.00252
  20        3PZ        -0.00721  -0.00424   0.00544   0.00142  -0.00446
  21 3   H  1S          0.01527  -0.00726  -0.04434  -0.04095  -0.06724
  22        2S          0.15035  -1.19855  -1.43693  -1.32718  -0.09860
  23        3PX         0.00209   0.00278   0.00287   0.00693   0.00251
  24        3PY        -0.00369  -0.00243  -0.00639   0.00514  -0.00248
  25        3PZ        -0.00844  -0.00396   0.00495   0.00081  -0.00442
  26 4   H  1S          0.01527  -0.00726   0.05764  -0.01792  -0.06724
  27        2S          0.15035  -1.19855   1.86784  -0.58083  -0.09859
  28        3PX         0.00425   0.00227   0.00326   0.00752   0.00245
  29        3PY        -0.00591  -0.00191  -0.00552   0.00481  -0.00242
  30        3PZ        -0.00602  -0.00452   0.00508   0.00141  -0.00449
  31 5   H  1S         -0.02058   0.03623   0.00000   0.00000   0.23864
  32        2S         -0.00112  -0.31320  -0.00001   0.00000   2.94191
  33        3PX        -0.00743  -0.00149   0.00200   0.00433   0.00123
  34        3PY         0.00749   0.00151  -0.00374   0.00296  -0.00124
  35        3PZ         0.01350   0.00271   0.00318   0.00075  -0.00223
  36 6   H  1S          0.19689   0.04472   0.00000   0.00000   0.05277
  37        2S          0.75202   0.23552   0.00000   0.00000  -1.75366
  38        3PX         0.00393   0.00242   0.00215   0.00464   0.00123
  39        3PY        -0.00396  -0.00243  -0.00400   0.00317  -0.00124
  40        3PZ        -0.00713  -0.00438   0.00340   0.00080  -0.00224
                          11        12        13        14        15
                        (A)--V    (A)--V    (A)--V    (A)--V    (A)--V
     EIGENVALUES --     0.71647   0.71647   0.82462   0.99927   1.14695
   1 1   C  1S          0.00000   0.00000   0.03313  -0.04909   0.00000
   2        2S          0.00000   0.00000   0.04110  -0.07380   0.00001
   3        2PX        -0.63350   0.08327   0.42131   0.05262  -0.37294
   4        2PY        -0.22888  -0.59536  -0.42443  -0.05301   0.52622
   5        2PZ        -0.22196   0.37628  -0.76479  -0.09553  -0.49749
   6        3S          0.00000   0.00000  -0.57311   0.29456  -0.00001
   7        3PX         1.27220  -0.16722  -0.46399   0.14327   0.59298
   8        3PY         0.45965   1.19561   0.46743  -0.14434  -0.83670
   9        3PZ         0.44574  -0.75565   0.84227  -0.26007   0.79102
  10        4XX        -0.03714   0.04895   0.01219  -0.05192   0.21368
  11        4YY         0.04072  -0.01147   0.01196  -0.05179  -0.11002
  12        4ZZ        -0.00358  -0.03748  -0.02421  -0.03286  -0.10366
  13        4XY         0.05712   0.01085   0.01845  -0.00966  -0.03489
  14        4XZ        -0.01347   0.01962   0.03324  -0.01741   0.08902
  15        4YZ         0.02049   0.05266  -0.03349   0.01754   0.14478
  16 2   H  1S          0.43749   0.25314   0.19898  -0.30104   0.09305
  17        2S          0.15872   0.09184   0.07013  -0.08291  -0.19393
  18        3PX         0.02899   0.00339   0.00643   0.02153  -0.04587
  19        3PY         0.02052   0.02565   0.00639   0.02680   0.02497
  20        3PZ         0.01014  -0.00915   0.00013   0.00540  -0.04633
  21 3   H  1S         -0.43797   0.25231   0.19898  -0.30104   0.60994
  22        2S         -0.15889   0.09153   0.07013  -0.08291  -1.27121
  23        3PX         0.03480  -0.01167  -0.00759  -0.03132   0.11509
  24        3PY         0.00254   0.02018   0.00131   0.00766   0.00607
  25        3PZ         0.01220  -0.01442  -0.00478  -0.01309   0.01279
  26 4   H  1S          0.00048  -0.50545   0.19899  -0.30104  -0.70301
  27        2S          0.00017  -0.18337   0.07013  -0.08291   1.46516
  28        3PX         0.01886  -0.00259   0.00103   0.00116  -0.02858
  29        3PY         0.00680   0.03185  -0.00756  -0.02577  -0.08838
  30        3PZ         0.00662  -0.02552   0.00489   0.02336   0.08776
  31 5   H  1S          0.00000  -0.00001  -0.25291  -0.60754   0.00000
  32        2S          0.00000   0.00000   0.46257   1.01453   0.00000
  33        3PX         0.02827  -0.00372  -0.04306   0.04165  -0.01499
  34        3PY         0.01022   0.02657   0.04338  -0.04196   0.02115
  35        3PZ         0.00991  -0.01679   0.07816  -0.07560  -0.01999
  36 6   H  1S          0.00000   0.00000   0.06366  -0.91108   0.00000
  37        2S          0.00000   0.00000  -0.51033   0.43814   0.00000
  38        3PX         0.02129  -0.00280   0.00265  -0.02343   0.00515
  39        3PY         0.00769   0.02001  -0.00267   0.02361  -0.00726
  40        3PZ         0.00746  -0.01265  -0.00481   0.04254   0.00686
                          16        17        18        19        20
                        (A)--V    (A)--V    (A)--V    (A)--V    (A)--V
     EIGENVALUES --     1.14695   1.18914   1.21647   1.44565   1.64317
   1 1   C  1S          0.00000   0.03624  -0.03861  -0.12703   0.00000
   2        2S          0.00000  -1.07516   0.73189  -1.86742   0.00001
   3        2PX        -0.63203  -0.19811  -0.11141   0.12390   0.04217
   4        2PY        -0.50967   0.19958   0.11223  -0.12483   0.03008
   5        2PZ        -0.06532   0.35960   0.20223  -0.22491   0.00654
   6        3S          0.00001   2.01950  -1.72949   5.31473  -0.00002
   7        3PX         1.00493   0.45105   0.29664  -0.45258  -0.04087
   8        3PY         0.81039  -0.45440  -0.29884   0.45593  -0.02916
   9        3PZ         0.10386  -0.81875  -0.53847   0.82153  -0.00634
  10        4XX         0.04223   0.01396   0.02429  -0.12435  -0.36667
  11        4YY        -0.11164   0.01312   0.02385  -0.12410   0.16398
  12        4ZZ         0.06941  -0.11668  -0.04364  -0.08595   0.20269
  13        4XY        -0.20976   0.06621   0.03443  -0.01946  -0.19596
  14        4XZ         0.03098   0.11931   0.06204  -0.03506   0.47041
  15        4YZ        -0.13457  -0.12019  -0.06250   0.03533   0.21135
  16 2   H  1S         -0.75803   0.45531  -0.20185  -0.42922   0.04040
  17        2S          1.57984  -1.06076   0.21380  -0.65544  -0.05208
  18        3PX         0.06577  -0.06888   0.00433  -0.00145   0.13080
  19        3PY         0.11349  -0.05432   0.04539   0.00929  -0.05361
  20        3PZ         0.03196   0.01156   0.03778   0.00981  -0.23311
  21 3   H  1S          0.45961   0.45531  -0.20185  -0.42922  -0.02715
  22        2S         -0.95788  -1.06076   0.21379  -0.65544   0.03501
  23        3PX         0.05728   0.06595  -0.04990  -0.00998  -0.10141
  24        3PY        -0.07145  -0.00548   0.02575   0.00620  -0.06978
  25        3PZ         0.03561   0.05873   0.01881   0.00683   0.20798
  26 4   H  1S          0.29843   0.45531  -0.20184  -0.42922  -0.01324
  27        2S         -0.62197  -1.06074   0.21379  -0.65545   0.01708
  28        3PX        -0.05417  -0.01692  -0.01657  -0.00474  -0.21964
  29        3PY         0.01350   0.07980  -0.00855   0.00080  -0.01233
  30        3PZ        -0.06045  -0.03425   0.05620   0.01271  -0.00436
  31 5   H  1S          0.00000  -0.56240  -0.93930   0.03307   0.00000
  32        2S          0.00000   1.59944   2.45290  -2.70198   0.00001
  33        3PX        -0.02540  -0.00828  -0.02077  -0.04701   0.22936
  34        3PY        -0.02048   0.00834   0.02092   0.04735   0.16362
  35        3PZ        -0.00263   0.01502   0.03770   0.08533   0.03555
  36 6   H  1S          0.00000  -0.08384   0.74849   0.47638   0.00000
  37        2S          0.00000  -0.51142  -1.46716   0.54850   0.00000
  38        3PX         0.00872  -0.01374  -0.04062  -0.01929   0.07358
  39        3PY         0.00703   0.01384   0.04092   0.01943   0.05249
  40        3PZ         0.00090   0.02494   0.07374   0.03503   0.01140
                          21        22        23        24        25
                        (A)--V    (A)--V    (A)--V    (A)--V    (A)--V
     EIGENVALUES --     1.64317   2.11717   2.11717   2.15777   2.31870
   1 1   C  1S          0.00000   0.00000   0.00000   0.04783   0.00000
   2        2S         -0.00001  -0.00001   0.00000  -0.01352   0.00000
   3        2PX        -0.02084  -0.00541   0.06174   0.06832   0.00000
   4        2PY         0.03606   0.05866   0.01968  -0.06883   0.00000
   5        2PZ        -0.03149  -0.03554   0.02309  -0.12402   0.00000
   6        3S          0.00003   0.00003  -0.00002  -0.60370   0.00000
   7        3PX         0.02019   0.01436  -0.16399  -0.08774  -0.00001
   8        3PY        -0.03494  -0.15579  -0.05227   0.08839  -0.00002
   9        3PZ         0.03053   0.09438  -0.06133   0.15927   0.00001
  10        4XX        -0.05067  -0.03140   0.13213  -0.06264   0.00001
  11        4YY         0.50936  -0.10510  -0.05535  -0.06016   0.00000
  12        4ZZ        -0.45870   0.13650  -0.07677   0.31918  -0.00001
  13        4XY        -0.31963   0.06255  -0.07107  -0.19352   0.00001
  14        4XZ        -0.14885  -0.03611  -0.08872  -0.34870   0.00000
  15        4YZ         0.00615  -0.09980  -0.07132   0.35129   0.00002
  16 2   H  1S          0.00803   0.02984   0.04678   0.24655  -0.00002
  17        2S         -0.01035  -0.07536  -0.11812   0.00274   0.00000
  18        3PX         0.14512  -0.07203  -0.20475   0.02621  -0.31879
  19        3PY        -0.13325  -0.01122   0.07694  -0.11288   0.32810
  20        3PZ         0.08732   0.17707   0.17447  -0.12689  -0.35771
  21 3   H  1S          0.03097   0.02559  -0.04923   0.24655   0.00000
  22        2S         -0.03993  -0.06462   0.12432   0.00274   0.00000
  23        3PX         0.00456  -0.04750   0.02424   0.12046  -0.19985
  24        3PY        -0.20724  -0.01576  -0.14305  -0.07874  -0.51596
  25        3PZ        -0.13923   0.16309  -0.25456  -0.09391   0.17625
  26 4   H  1S         -0.03900  -0.05544   0.00246   0.24655   0.00002
  27        2S          0.05028   0.13997  -0.00620   0.00274   0.00000
  28        3PX        -0.05566   0.14294  -0.08679   0.06253   0.51866
  29        3PY         0.17782  -0.22696  -0.01909  -0.01912   0.18789
  30        3PZ         0.19399  -0.18632  -0.01989  -0.15892   0.18146
  31 5   H  1S          0.00001   0.00000   0.00000  -0.28795   0.00000
  32        2S         -0.00003  -0.00003   0.00001   0.62803   0.00000
  33        3PX        -0.11335  -0.04331   0.49451   0.14984   0.00000
  34        3PY         0.19611   0.46981   0.15761  -0.15096   0.00001
  35        3PZ        -0.17128  -0.28459   0.18495  -0.27201   0.00000
  36 6   H  1S          0.00000   0.00000   0.00000   0.33747   0.00000
  37        2S          0.00001   0.00001  -0.00001  -0.49689   0.00000
  38        3PX        -0.03637  -0.04862   0.55512  -0.16299   0.00000
  39        3PY         0.06292   0.52740   0.17693   0.16419   0.00001
  40        3PZ        -0.05495  -0.31946   0.20761   0.29586   0.00000
                          26        27        28        29        30
                        (A)--V    (A)--V    (A)--V    (A)--V    (A)--V
     EIGENVALUES --     2.32621   2.32621   2.57653   2.57653   2.82812
   1 1   C  1S          0.00000   0.00000   0.00000   0.00000   0.04623
   2        2S          0.00000   0.00000   0.00000   0.00000   0.22124
   3        2PX         0.01819  -0.09617   0.03519  -0.07266   0.06832
   4        2PY        -0.08908  -0.04013  -0.06229  -0.05114  -0.06883
   5        2PZ         0.05946  -0.03071   0.05395  -0.01165  -0.12401
   6        3S          0.00000   0.00000   0.00000   0.00000  -1.08297
   7        3PX        -0.11626   0.61463  -0.00616   0.01273   0.40309
   8        3PY         0.56933   0.25650   0.01091   0.00896  -0.40609
   9        3PZ        -0.38002   0.19624  -0.00945   0.00204  -0.73170
  10        4XX        -0.39866   0.25921  -0.22399   0.20245   0.00084
  11        4YY         0.11806  -0.31007  -0.06889  -0.19793   0.00092
  12        4ZZ         0.28060   0.05086   0.29288  -0.00452   0.01263
  13        4XY        -0.06679  -0.44950   0.13721  -0.17595  -0.00597
  14        4XZ        -0.15826   0.10634  -0.04741  -0.12711  -0.01076
  15        4YZ        -0.39777  -0.17746  -0.18336  -0.21891   0.01083
  16 2   H  1S          0.24753   0.48937   0.03541   0.17096   0.05352
  17        2S          0.03024   0.05979  -0.02918  -0.14091   0.01424
  18        3PX         0.04031  -0.34519  -0.03800   0.21349  -0.32741
  19        3PY        -0.26006  -0.07688   0.03194  -0.25431   0.17619
  20        3PZ         0.23160  -0.01887  -0.16996  -0.37525   0.45338
  21 3   H  1S          0.30005  -0.45905   0.13035  -0.11614   0.05352
  22        2S          0.03666  -0.05608  -0.10744   0.09573   0.01424
  23        3PX         0.02579  -0.25922   0.21622  -0.12505  -0.15994
  24        3PY        -0.25835  -0.17210  -0.08272   0.24821   0.23684
  25        3PZ         0.23645  -0.16795  -0.31839   0.22407   0.51197
  26 4   H  1S         -0.54757  -0.03032  -0.16575  -0.05482   0.05352
  27        2S         -0.06690  -0.00370   0.13662   0.04518   0.01425
  28        3PX         0.10623  -0.30660  -0.24812   0.05589  -0.26288
  29        3PY        -0.32545  -0.13121   0.17452   0.10768   0.34277
  30        3PZ         0.09521  -0.10405   0.38117   0.17432   0.39649
  31 5   H  1S          0.00000   0.00000   0.00000   0.00000   0.30799
  32        2S          0.00000   0.00000   0.00000   0.00000   1.21643
  33        3PX         0.02696  -0.14254   0.16047  -0.33133   0.10112
  34        3PY        -0.13204  -0.05949  -0.28405  -0.23318  -0.10187
  35        3PZ         0.08813  -0.04551   0.24604  -0.05312  -0.18357
  36 6   H  1S          0.00000   0.00000   0.00000   0.00000  -0.01780
  37        2S          0.00000   0.00000   0.00000   0.00000  -0.45141
  38        3PX         0.04138  -0.21877  -0.24818   0.51244  -0.17214
  39        3PY        -0.20265  -0.09130   0.43932   0.36064   0.17341
  40        3PZ         0.13526  -0.06985  -0.38053   0.08215   0.31250
                          31        32        33        34        35
                        (A)--V    (A)--V    (A)--V    (A)--V    (A)--V
     EIGENVALUES --     2.87965   2.96566   2.96567   3.18522   3.18522
   1 1   C  1S         -0.04747   0.00000   0.00000   0.00000   0.00000
   2        2S          0.03601   0.00000   0.00000   0.00000   0.00000
   3        2PX        -0.00816  -0.12489   0.02749  -0.11035  -0.09466
   4        2PY         0.00822  -0.05587  -0.11478   0.06607  -0.12922
[...]
      X                                                                                                                              
      X                                                                                                                              
      X                                                                                                                              
      X                                                                                                                              
      X                                                                                                                              
      X                                                                                                                              
      X                                                                                                                              
      X                                                                                                                              
      X                                                                                                                              
      X                                                                                                                              
      X                                                                                                                              
      X                                                                                                                              
      X                                                                                                                              
      X                                                                                                                              
 
 ***** Axes restored to original set *****
 -------------------------------------------------------------------
 Center     Atomic                   Forces (Hartrees/Bohr)
 Number     Number              X              Y              Z
 -------------------------------------------------------------------
    1          6          -0.028484810   -0.000000382   -0.000000369
    2          1           0.002465455    0.000006754   -0.000807427
    3          1           0.002465294   -0.000702822    0.000397943
    4          1           0.002465104    0.000696321    0.000409919
    5          1           0.029280663    0.000000205   -0.000000050
    6          1          -0.008191705   -0.000000076   -0.000000016
 -------------------------------------------------------------------
 Cartesian Forces:  Max     0.029280663 RMS     0.009877122
 ------------------------------------------------------------------------
           Internal Coordinate Forces (Hartree/Bohr or radian)
 Cent Atom N1     Length/X     N2     Alpha/Y      N3      Beta/Z       J
 ------------------------------------------------------------------------
   1  C        -0.028485(   1)      0.000000(   7)      0.000000(  13)
   2  H         0.002465(   2)      0.000007(   8)     -0.000807(  14)
   3  H         0.002465(   3)     -0.000703(   9)      0.000398(  15)
   4  H         0.002465(   4)      0.000696(  10)      0.000410(  16)
   5  H         0.029281(   5)      0.000000(  11)      0.000000(  17)
   6  H        -0.008192(   6)      0.000000(  12)      0.000000(  18)
 ------------------------------------------------------------------------
 Internal  Forces:  Max     0.029280663 RMS     0.009877122
 Force constants in Cartesian coordinates: 
                1             2             3             4             5
      1  0.173630D+00
      2 -0.297535D-05  0.632856D+00
      3 -0.110001D-05  0.000000D+00  0.632857D+00
      4 -0.500893D-01  0.700676D-03 -0.833277D-01  0.562781D-01
      5  0.624592D-03 -0.546399D-01  0.240550D-02 -0.693996D-03  0.490219D-01
      6 -0.742754D-01  0.240561D-02 -0.340775D+00  0.825402D-01 -0.260420D-02
      7 -0.500892D-01 -0.725137D-01  0.410568D-01  0.353382D-02  0.987551D-02
      8 -0.646362D-01 -0.271325D+00  0.122697D+00  0.666900D-03  0.306472D-02
      9  0.365966D-01  0.122696D+00 -0.124089D+00  0.109249D-01  0.262834D-01
     10 -0.500913D-01  0.718159D-01  0.422720D-01  0.353396D-02 -0.979474D-02
     11  0.640145D-01 -0.267155D+00 -0.125102D+00 -0.850523D-03  0.344368D-02
     12  0.376800D-01 -0.125102D+00 -0.128257D+00  0.109125D-01 -0.260643D-01
     13  0.975538D-01  0.000000D+00  0.000000D+00 -0.190699D-01 -0.174498D-04
     14  0.000000D+00 -0.450678D-01  0.000000D+00  0.183381D-03 -0.633006D-03
     15  0.000000D+00  0.000000D+00 -0.450678D-01 -0.218117D-01 -0.149170D-04
     16 -0.120914D+00  0.000000D+00  0.000000D+00  0.581334D-02  0.608819D-05
     17  0.000000D+00  0.533206D-02  0.000000D+00 -0.643935D-05 -0.257334D-03
     18  0.000000D+00  0.000000D+00  0.533204D-02  0.761757D-03 -0.545295D-05
                6             7             8             9            10
      6  0.358780D+00
      7 -0.471952D-02  0.562780D-01
      8 -0.352346D-02  0.718285D-01  0.283596D+00
      9 -0.957024D-02 -0.406687D-01 -0.132826D+00  0.124205D+00
     10 -0.488496D-02  0.353395D-02 -0.902496D-02 -0.619262D-02  0.562799D-01
     11  0.374227D-02  0.912810D-02 -0.162668D-01 -0.151222D-01 -0.711373D-01
     12 -0.994930D-02 -0.604017D-02  0.146844D-01  0.976117D-02 -0.418727D-01
     13  0.205947D-02 -0.190698D-01  0.179213D-02 -0.101483D-02 -0.190697D-01
     14 -0.147615D-04 -0.189812D-01  0.696554D-03 -0.752998D-03  0.187977D-01
     15  0.112278D-02  0.107470D-01 -0.752864D-03 -0.206811D-03  0.110646D-01
     16 -0.719781D-03  0.581330D-02 -0.626344D-03  0.354671D-03  0.581319D-02
     17 -0.545577D-05  0.662870D-03  0.234383D-03 -0.278426D-03 -0.656573D-03
     18  0.391977D-03 -0.375336D-03 -0.278429D-03 -0.997364D-04 -0.386455D-03
               11            12            13            14            15
     11  0.279082D+00
     12  0.135430D+00  0.128717D+00
     13 -0.177513D-02 -0.104486D-02 -0.107196D+00
     14  0.671226D-03  0.767758D-03  0.000000D+00  0.515353D-01
     15  0.767779D-03 -0.181242D-03  0.000000D+00  0.000000D+00  0.515353D-01
     16  0.620398D-03  0.365175D-03  0.668517D-01  0.000000D+00  0.000000D+00
     17  0.224905D-03  0.283884D-03  0.000000D+00 -0.720229D-02  0.000000D+00
     18  0.283883D-03 -0.902808D-04  0.000000D+00  0.000000D+00 -0.720229D-02
               16            17            18
     16  0.366229D-01
     17  0.000000D+00  0.166828D-02
     18  0.000000D+00  0.000000D+00  0.166828D-02
 Force constants in internal coordinates: 
                1             2             3             4             5
      1  0.173630D+00
      2 -0.500893D-01  0.562781D-01
      3 -0.500892D-01  0.353382D-02  0.562780D-01
      4 -0.500913D-01  0.353396D-02  0.353395D-02  0.562799D-01
      5  0.975538D-01 -0.190699D-01 -0.190698D-01 -0.190697D-01 -0.107196D+00
      6 -0.120914D+00  0.581334D-02  0.581330D-02  0.581319D-02  0.668517D-01
      7 -0.297535D-05  0.700676D-03 -0.725137D-01  0.718159D-01  0.000000D+00
      8  0.624592D-03 -0.693996D-03  0.987551D-02 -0.979474D-02 -0.174498D-04
      9 -0.646362D-01  0.666900D-03  0.718285D-01 -0.902496D-02  0.179213D-02
     10  0.640145D-01 -0.850523D-03  0.912810D-02 -0.711373D-01 -0.177513D-02
     11  0.000000D+00  0.183381D-03 -0.189812D-01  0.187977D-01  0.000000D+00
     12  0.000000D+00 -0.643935D-05  0.662870D-03 -0.656573D-03  0.000000D+00
     13 -0.110001D-05 -0.833277D-01  0.410568D-01  0.422720D-01  0.000000D+00
     14 -0.742754D-01  0.825402D-01 -0.471952D-02 -0.488496D-02  0.205947D-02
     15  0.365966D-01  0.109249D-01 -0.406687D-01 -0.619262D-02 -0.101483D-02
     16  0.376800D-01  0.109125D-01 -0.604017D-02 -0.418727D-01 -0.104486D-02
     17  0.000000D+00 -0.218117D-01  0.107470D-01  0.110646D-01  0.000000D+00
     18  0.000000D+00  0.761757D-03 -0.375336D-03 -0.386455D-03  0.000000D+00
                6             7             8             9            10
      6  0.366229D-01
      7  0.000000D+00  0.632856D+00
      8  0.608819D-05 -0.546399D-01  0.490219D-01
      9 -0.626344D-03 -0.271325D+00  0.306472D-02  0.283596D+00
     10  0.620398D-03 -0.267155D+00  0.344368D-02 -0.162668D-01  0.279082D+00
     11  0.000000D+00 -0.450678D-01 -0.633006D-03  0.696554D-03  0.671226D-03
     12  0.000000D+00  0.533206D-02 -0.257334D-03  0.234383D-03  0.224905D-03
     13  0.000000D+00  0.000000D+00  0.240550D-02  0.122697D+00 -0.125102D+00
     14 -0.719781D-03  0.240561D-02 -0.260420D-02 -0.352346D-02  0.374227D-02
     15  0.354671D-03  0.122696D+00  0.262834D-01 -0.132826D+00 -0.151222D-01
     16  0.365175D-03 -0.125102D+00 -0.260643D-01  0.146844D-01  0.135430D+00
     17  0.000000D+00  0.000000D+00 -0.149170D-04 -0.752864D-03  0.767779D-03
     18  0.000000D+00  0.000000D+00 -0.545295D-05 -0.278429D-03  0.283883D-03
               11            12            13            14            15
     11  0.515353D-01
     12 -0.720229D-02  0.166828D-02
     13  0.000000D+00  0.000000D+00  0.632857D+00
     14 -0.147615D-04 -0.545577D-05 -0.340775D+00  0.358780D+00
     15 -0.752998D-03 -0.278426D-03 -0.124089D+00 -0.957024D-02  0.124205D+00
     16  0.767758D-03  0.283884D-03 -0.128257D+00 -0.994930D-02  0.976117D-02
     17  0.000000D+00  0.000000D+00 -0.450678D-01  0.112278D-02 -0.206811D-03
     18  0.000000D+00  0.000000D+00  0.533204D-02  0.391977D-03 -0.997364D-04
               16            17            18
     16  0.128717D+00
     17 -0.181242D-03  0.515353D-01
     18 -0.902808D-04 -0.720229D-02  0.166828D-02
 Leave Link  716 at Wed Apr 10 03:14:08 2013, MaxMem=    6291456 cpu:       0.0
 (Enter /soft/g03/g03/l103.exe)

 GradGradGradGradGradGradGradGradGradGradGradGradGradGradGradGradGradGrad
 Berny optimization.
 Search for a local minimum.
 Step number   1 out of a maximum of   2
 All quantities printed in internal units (Hartrees-Bohrs-Radians)
 Second derivative matrix not updated -- analytic derivatives used.
 The second derivative matrix:
                          X1        Y1        Z1        X2        Y2
           X1           0.17363
           Y1           0.00000   0.63286
           Z1           0.00000   0.00000   0.63286
           X2          -0.05009   0.00070  -0.08333   0.05628
           Y2           0.00062  -0.05464   0.00241  -0.00069   0.04902
           Z2          -0.07428   0.00241  -0.34077   0.08254  -0.00260
           X3          -0.05009  -0.07251   0.04106   0.00353   0.00988
           Y3          -0.06464  -0.27133   0.12270   0.00067   0.00306
           Z3           0.03660   0.12270  -0.12409   0.01092   0.02628
           X4          -0.05009   0.07182   0.04227   0.00353  -0.00979
           Y4           0.06401  -0.26715  -0.12510  -0.00085   0.00344
           Z4           0.03768  -0.12510  -0.12826   0.01091  -0.02606
           X5           0.09755   0.00000   0.00000  -0.01907  -0.00002
           Y5           0.00000  -0.04507   0.00000   0.00018  -0.00063
           Z5           0.00000   0.00000  -0.04507  -0.02181  -0.00001
           X6          -0.12091   0.00000   0.00000   0.00581   0.00001
           Y6           0.00000   0.00533   0.00000  -0.00001  -0.00026
           Z6           0.00000   0.00000   0.00533   0.00076  -0.00001
                          Z2        X3        Y3        Z3        X4
           Z2           0.35878
           X3          -0.00472   0.05628
           Y3          -0.00352   0.07183   0.28360
           Z3          -0.00957  -0.04067  -0.13283   0.12420
           X4          -0.00488   0.00353  -0.00902  -0.00619   0.05628
           Y4           0.00374   0.00913  -0.01627  -0.01512  -0.07114
           Z4          -0.00995  -0.00604   0.01468   0.00976  -0.04187
           X5           0.00206  -0.01907   0.00179  -0.00101  -0.01907
           Y5          -0.00001  -0.01898   0.00070  -0.00075   0.01880
           Z5           0.00112   0.01075  -0.00075  -0.00021   0.01106
           X6          -0.00072   0.00581  -0.00063   0.00035   0.00581
           Y6          -0.00001   0.00066   0.00023  -0.00028  -0.00066
           Z6           0.00039  -0.00038  -0.00028  -0.00010  -0.00039
                          Y4        Z4        X5        Y5        Z5
           Y4           0.27908
           Z4           0.13543   0.12872
           X5          -0.00178  -0.00104  -0.10720
           Y5           0.00067   0.00077   0.00000   0.05154
           Z5           0.00077  -0.00018   0.00000   0.00000   0.05154
           X6           0.00062   0.00037   0.06685   0.00000   0.00000
           Y6           0.00022   0.00028   0.00000  -0.00720   0.00000
           Z6           0.00028  -0.00009   0.00000   0.00000  -0.00720
                          X6        Y6        Z6
           X6           0.03662
           Y6           0.00000   0.00167
           Z6           0.00000   0.00000   0.00167
     Eigenvalues ---   -0.18648   0.00799   0.00799   0.06080   0.08039
     Eigenvalues ---    0.08039   0.11688   0.11688   0.17567   0.44553
     Eigenvalues ---    0.83013   0.83013
 Eigenvalue   1 out of range, new value =    0.186478 Eigenvector:
                           1
           X1          -0.29076
           Y1           0.00000
           Z1           0.00000
           X2           0.07421
           Y2           0.00045
           Z2          -0.05296
           X3           0.07421
           Y3          -0.04609
           Z3           0.02610
           X4           0.07421
           Y4           0.04564
           Z4           0.02687
           X5           0.86554
           Y5           0.00000
           Z5           0.00000
           X6          -0.37597
           Y6           0.00000
           Z6           0.00000
 Angle between quadratic step and forces=  20.05 degrees.
 Linear search not attempted -- first point.
 TrRot= -0.023049  0.000001  0.000000  0.000000  0.000000  0.000000
 Variable       Old X    -DE/DX   Delta X   Delta X   Delta X     New X
                                 (Linear)    (Quad)   (Total)
    X1        0.47230  -0.02848   0.00000  -0.09541  -0.11846   0.35385
    Y1        0.00000   0.00000   0.00000   0.00000   0.00000   0.00000
    Z1        0.00000   0.00000   0.00000   0.00000   0.00000   0.00000
    X2        0.98794   0.00247   0.00000   0.01808  -0.00496   0.98297
    Y2       -0.01665   0.00001   0.00000   0.00013   0.00013  -0.01652
    Z2        1.98042  -0.00081   0.00000  -0.01559  -0.01559   1.96483
    X3        0.98794   0.00247   0.00000   0.01809  -0.00496   0.98298
    Y3        1.72342  -0.00070   0.00000  -0.01357  -0.01356   1.70986
    Z3       -0.97579   0.00040   0.00000   0.00768   0.00768  -0.96811
    X4        0.98796   0.00247   0.00000   0.01806  -0.00499   0.98297
    Y4       -1.70676   0.00070   0.00000   0.01343   0.01343  -1.69333
    Z4       -1.00463   0.00041   0.00000   0.00791   0.00791  -0.99672
    X5       -1.96256   0.02928   0.00000   0.18824   0.16519  -1.79738
    Y5       -0.00001   0.00000   0.00000   0.00001   0.00002   0.00000
    Z5        0.00000   0.00000   0.00000   0.00000   0.00000   0.00000
    X6       -3.83509  -0.00819   0.00000  -0.00877  -0.03182  -3.86691
    Y6        0.00000   0.00000   0.00000  -0.00002  -0.00002  -0.00002
    Z6        0.00000   0.00000   0.00000  -0.00001  -0.00001  -0.00001
         Item               Value     Threshold  Converged?
 Maximum Force            0.029281     0.000450     NO 
 RMS     Force            0.009877     0.000300     NO 
 Maximum Displacement     0.165189     0.001800     NO 
 RMS     Displacement     0.048953     0.001200     NO 
 Predicted change in Energy=-1.173050D-02
 GradGradGradGradGradGradGradGradGradGradGradGradGradGradGradGradGradGrad

 Leave Link  103 at Wed Apr 10 03:14:08 2013, MaxMem=    6291456 cpu:       0.0
 (Enter /soft/g03/g03/l9999.exe)

 Test job not archived.
 1\1\GINC-AN181\Freq\UMP2-FC\6-31G(d,p)\C1H5(2)\SCANNE04\10-Apr-2013\0\
 \#P MP2 6-31G** IOP(6/7=3) GFINPUT POP=FULL # FREQ\\job\\0,2\C,0.24993
 2,0.0000001818,0.0000000909\H,0.522794,-0.0088098182,1.0479940909\H,0.
 522793,0.9119971818,-0.5163639091\H,0.522806,-0.9031808182,-0.53162790
 91\H,-1.038544,-0.0000068182,-0.0000019091\H,-2.029441,-0.0000008182,-
 0.0000009091\\Version=AM64L-G03RevC.02\State=2-A\HF=-40.663348\MP2=-40
 .8306862\PUHF=-40.6701593\PMP2-0=-40.8352914\S2=0.784256\S2-1=0.761991
 \S2A=0.750194\RMSD=1.171e-09\RMSF=9.877e-03\Dipole=0.2566385,0.0000009
 ,0.0000005\DipoleDeriv=0.1940907,0.0000004,-0.0000001,0.0000011,0.0547
 567,0.0000003,0.0000003,0.0000003,0.054756,-0.0067831,0.0004007,-0.047
 6406,0.0002484,0.055981,0.0011157,-0.0295767,0.001116,-0.0767679,-0.00
 6783,-0.041458,0.0234734,-0.0257386,-0.0445481,0.0569238,0.0145727,0.0
 569236,0.0237608,-0.0067838,0.0410591,0.0241681,0.02549,-0.0426131,-0.
 0580398,0.0150039,-0.0580398,0.0218275,-0.2945465,-0.0000027,-0.000000
 9,-0.0000004,0.0158229,0.,0.,0.,0.0158231,0.1208057,0.0000005,0.000000
 1,-0.0000006,-0.0393995,0.,0.,0.,-0.0393995\Polar=28.1247839,-0.000035
 1,12.6082182,-0.0000142,0.0000029,12.6082158\PG=C01 [X(C1H5)]\NImag=1\
 \0.17363043,-0.00000298,0.63285559,-0.00000110,-0.00000033,0.63285699,
 -0.05008928,0.00070068,-0.08332768,0.05627810,0.00062459,-0.05463994,0
 .00240550,-0.00069400,0.04902187,-0.07427544,0.00240561,-0.34077496,0.
 08254023,-0.00260420,0.35877974,-0.05008925,-0.07251374,0.04105675,0.0
 0353382,0.00987551,-0.00471952,0.05627795,-0.06463621,-0.27132512,0.12
 269652,0.00066690,0.00306472,-0.00352346,0.07182849,0.28359628,0.03659
 659,0.12269641,-0.12408935,0.01092492,0.02628337,-0.00957024,-0.040668
 73,-0.13282613,0.12420497,-0.05009128,0.07181592,0.04227205,0.00353396
 ,-0.00979474,-0.00488496,0.00353395,-0.00902496,-0.00619262,0.05627992
 ,0.06401449,-0.26715478,-0.12510170,-0.00085052,0.00344368,0.00374227,
 0.00912810,-0.01626681,-0.01512224,-0.07113734,0.27908177,0.03768001,-
 0.12510170,-0.12825694,0.01091251,-0.02606430,-0.00994930,-0.00604017,
 0.01468437,0.00976117,-0.04187266,0.13543000,0.12871659,0.09755382,0.0
 0000062,0.00000010,-0.01906994,-0.00001745,0.00205947,-0.01906977,0.00
 179213,-0.00101483,-0.01906974,-0.00177513,-0.00104486,-0.10719606,-0.
 00000061,-0.04506782,0.,0.00018338,-0.00063301,-0.00001476,-0.01898123
 ,0.00069655,-0.00075300,0.01879771,0.00067123,0.00076776,0.00000039,0.
 05153533,-0.00000018,0.,-0.04506778,-0.02181173,-0.00001492,0.00112278
 ,0.01074700,-0.00075286,-0.00020681,0.01106465,0.00076778,-0.00018124,
 0.00000021,0.,0.05153533,-0.12091444,-0.00000050,-0.00000013,0.0058133
 4,0.00000609,-0.00071978,0.00581330,-0.00062634,0.00035467,0.00581319,
 0.00062040,0.00036517,0.06685170,0.00000036,0.00000005,0.03662293,0.00
 000072,0.00533206,0.,-0.00000644,-0.00025733,-0.00000546,0.00066287,0.
 00023438,-0.00027843,-0.00065657,0.00022491,0.00028388,-0.00000057,-0.
 00720229,0.,0.,0.00166828,0.00000013,0.,0.00533204,0.00076176,-0.00000
 545,0.00039198,-0.00037534,-0.00027843,-0.00009974,-0.00038646,0.00028
 388,-0.00009028,-0.00000010,0.,-0.00720229,0.,0.,0.00166828\\0.0284848
 1,0.00000038,0.00000037,-0.00246545,-0.00000675,0.00080743,-0.00246529
 ,0.00070282,-0.00039794,-0.00246510,-0.00069632,-0.00040992,-0.0292806
 6,-0.00000020,0.00000005,0.00819171,0.00000008,0.00000002\\\@


 FLOATING POINT NUMBERS ARE LIKE SANDPILES:
 EVERY TIME THAT YOU MOVE ONE, YOU LOSE A LITTLE SAND 
 AND YOU PICK UP A LITTLE DIRT.
 Job cpu time:  0 days  0 hours  0 minutes  9.4 seconds.
 File lengths (MBytes):  RWF=     54 Int=      0 D2E=      0 Chk=      6 Scr=      1
 Normal termination of Gaussian 03 at Wed Apr 10 03:14:08 2013.
total 20
drwx------  2 scanne04 2013007  4096 Apr 10 03:14 .
drwxrwxrwt 69 root     root    12288 Apr 10 03:13 ..
-rw-r--r--  1 scanne04 2013007   394 Apr 10 03:13 2.r_0.199.inp
/local/run/antares-adm.114834.0
