 Entering Gaussian System, Link 0=g03
 Initial command:
 /soft/g03/g03/l1.exe /local/run/antares-adm.114836.0/Gau-16813.inp -scrdir=/local/run/antares-adm.114836.0/
 Entering Link 1 = /soft/g03/g03/l1.exe PID=     16814.
  
 Copyright (c) 1988,1990,1992,1993,1995,1998,2003,2004, Gaussian, Inc.
                  All Rights Reserved.
  
 This is the Gaussian(R) 03 program.  It is based on the
 the Gaussian(R) 98 system (copyright 1998, Gaussian, Inc.),
 the Gaussian(R) 94 system (copyright 1995, Gaussian, Inc.),
 the Gaussian 92(TM) system (copyright 1992, Gaussian, Inc.),
 the Gaussian 90(TM) system (copyright 1990, Gaussian, Inc.),
 the Gaussian 88(TM) system (copyright 1988, Gaussian, Inc.),
 the Gaussian 86(TM) system (copyright 1986, Carnegie Mellon
 University), and the Gaussian 82(TM) system (copyright 1983,
 Carnegie Mellon University). Gaussian is a federally registered
 trademark of Gaussian, Inc.
  
 This software contains proprietary and confidential information,
 including trade secrets, belonging to Gaussian, Inc.
  
 This software is provided under written license and may be
 used, copied, transmitted, or stored only in accord with that
 written license.
  
 The following legend is applicable only to US Government
 contracts under FAR:
  
                    RESTRICTED RIGHTS LEGEND
  
 Use, reproduction and disclosure by the US Government is
 subject to restrictions as set forth in subparagraphs (a)
 and (c) of the Commercial Computer Software - Restricted
 Rights clause in FAR 52.227-19.
  
 Gaussian, Inc.
 340 Quinnipiac St., Bldg. 40, Wallingford CT 06492
  
  
 ---------------------------------------------------------------
 Warning -- This program may not be used in any manner that
 competes with the business of Gaussian, Inc. or will provide
 assistance to any competitor of Gaussian, Inc.  The licensee
 of this program is prohibited from giving any competitor of
 Gaussian, Inc. access to this program.  By using this program,
 the user acknowledges that Gaussian, Inc. is engaged in the
 business of creating and licensing software in the field of
 computational chemistry and represents and warrants to the
 licensee that it is not a competitor of Gaussian, Inc. and that
 it will not use this program in any manner prohibited above.
 ---------------------------------------------------------------
  

 Cite this work as:
 Gaussian 03, Revision C.02,
 M. J. Frisch, G. W. Trucks, H. B. Schlegel, G. E. Scuseria, 
 M. A. Robb, J. R. Cheeseman, J. A. Montgomery, Jr., T. Vreven, 
 K. N. Kudin, J. C. Burant, J. M. Millam, S. S. Iyengar, J. Tomasi, 
 V. Barone, B. Mennucci, M. Cossi, G. Scalmani, N. Rega, 
 G. A. Petersson, H. Nakatsuji, M. Hada, M. Ehara, K. Toyota, 
 R. Fukuda, J. Hasegawa, M. Ishida, T. Nakajima, Y. Honda, O. Kitao, 
 H. Nakai, M. Klene, X. Li, J. E. Knox, H. P. Hratchian, J. B. Cross, 
 C. Adamo, J. Jaramillo, R. Gomperts, R. E. Stratmann, O. Yazyev, 
 A. J. Austin, R. Cammi, C. Pomelli, J. W. Ochterski, P. Y. Ayala, 
 K. Morokuma, G. A. Voth, P. Salvador, J. J. Dannenberg, 
 V. G. Zakrzewski, S. Dapprich, A. D. Daniels, M. C. Strain, 
 O. Farkas, D. K. Malick, A. D. Rabuck, K. Raghavachari, 
 J. B. Foresman, J. V. Ortiz, Q. Cui, A. G. Baboul, S. Clifford, 
 J. Cioslowski, B. B. Stefanov, G. Liu, A. Liashenko, P. Piskorz, 
 I. Komaromi, R. L. Martin, D. J. Fox, T. Keith, M. A. Al-Laham, 
 C. Y. Peng, A. Nanayakkara, M. Challacombe, P. M. W. Gill, 
 B. Johnson, W. Chen, M. W. Wong, C. Gonzalez, and J. A. Pople, 
 Gaussian, Inc., Wallingford CT, 2004.
 
 ******************************************
 Gaussian 03:  AM64L-G03RevC.02 12-Jun-2004
                10-Apr-2013 
 ******************************************
 -------------------------------------------------
 #P MP2 6-31G** iop(6/7=3) gfinput pop=full # freq
 -------------------------------------------------
 1/10=4,30=1,38=1/1,3;
 2/17=6,18=5,40=1/2;
 3/5=1,6=6,7=101,11=9,16=1,24=10,25=1,30=1/1,2,3;
 4//1;
 5/5=2,38=5/2;
 8/6=3,8=1,10=2,19=11,30=-1/1;
 9/15=3,16=-3/6;
 11/6=1,8=1,15=11,17=12,24=-1,27=1,28=-2,29=300,32=6,42=3/1,2,10;
 10/6=2,21=1/2;
 8/6=4,8=1,10=2,19=11,30=-1/11,4;
 10/5=1,20=4/2;
 11/12=2,14=11,16=1,17=2,28=-2,42=3/2,10,12;
 6/7=3/1;
 7/8=1,10=1,12=2,25=1,44=2/1,2,3,16;
 1/10=4,30=1/3;
 99//99;
 Leave Link    1 at Wed Apr 10 03:14:11 2013, MaxMem=          0 cpu:       0.1
 (Enter /soft/g03/g03/l101.exe)
 ---
 job
 ---
 Symbolic Z-matrix:
 Charge =  0 Multiplicity = 2
 6                    -0.23882   0.        0. 
 1                    -0.52803  -0.17315   1.03051 
 1                    -0.52803  -0.80588  -0.6652 
 1                    -0.52804   0.97902  -0.36531 
 1                     0.94809   0.00001  0. 
 1                     2.06894   0.        0. 
 
                    Isotopes and Nuclear Properties:

  Atom         1           2           3           4           5           6
 IAtWgt=          12           1           1           1           1           1
 AtmWgt=  12.0000000   1.0078250   1.0078250   1.0078250   1.0078250   1.0078250
 IAtSpn=           0           1           1           1           1           1
 AtZEff=   0.0000000   0.0000000   0.0000000   0.0000000   0.0000000   0.0000000
 AtQMom=   0.0000000   0.0000000   0.0000000   0.0000000   0.0000000   0.0000000
 AtGFac=   0.0000000   2.7928460   2.7928460   2.7928460   2.7928460   2.7928460
 Leave Link  101 at Wed Apr 10 03:14:11 2013, MaxMem=    6291456 cpu:       0.0
 (Enter /soft/g03/g03/l103.exe)

 GradGradGradGradGradGradGradGradGradGradGradGradGradGradGradGradGradGrad
 Berny optimization.
 Initialization pass.
 Trust Radius=3.00D-01 FncErr=1.00D-07 GrdErr=1.00D-07
 Number of steps in this run=   2 maximum allowed number of steps=   2.
 GradGradGradGradGradGradGradGradGradGradGradGradGradGradGradGradGradGrad

 Leave Link  103 at Wed Apr 10 03:14:11 2013, MaxMem=    6291456 cpu:       0.0
 (Enter /soft/g03/g03/l202.exe)
                          Input orientation:                          
 ---------------------------------------------------------------------
 Center     Atomic     Atomic              Coordinates (Angstroms)
 Number     Number      Type              X           Y           Z
 ---------------------------------------------------------------------
    1          6             0       -0.238820    0.000000    0.000000
    2          1             0       -0.528034   -0.173147    1.030514
    3          1             0       -0.528032   -0.805881   -0.665204
    4          1             0       -0.528044    0.979021   -0.365308
    5          1             0        0.948090    0.000007   -0.000001
    6          1             0        2.068941    0.000001    0.000000
 ---------------------------------------------------------------------
                    Distance matrix (angstroms):
                    1          2          3          4          5
     1  C    0.000000
     2  H    1.084243   0.000000
     3  H    1.084244   1.809920   0.000000
     4  H    1.084243   1.809920   1.809921   0.000000
     5  H    1.186910   1.808559   1.808559   1.808560   0.000000
     6  H    2.307761   2.799325   2.799323   2.799332   1.120851
                    6
     6  H    0.000000
 This structure is nearly, but not quite of a higher symmetry.
 Consider Symm=Loose if the higher symmetry is desired.
 Stoichiometry    CH5(2)
 Framework group  C1[X(CH5)]
 Deg. of freedom    12
 Full point group                 C1      NOp   1
 Largest Abelian subgroup         C1      NOp   1
 Largest concise Abelian subgroup C1      NOp   1
                         Standard orientation:                         
 ---------------------------------------------------------------------
 Center     Atomic     Atomic              Coordinates (Angstroms)
 Number     Number      Type              X           Y           Z
 ---------------------------------------------------------------------
    1          6             0       -0.063955   -0.098548   -0.207925
    2          1             0        0.805091   -0.652433   -0.544901
    3          1             0       -0.317448    0.732787   -0.856159
    4          1             0       -0.911859   -0.734028    0.021873
    5          1             0        0.253892    0.391222    0.825445
    6          1             0        0.554056    0.853741    1.801295
 ---------------------------------------------------------------------
 Rotational constants (GHZ):    153.0781265     61.0401544     61.0401431
 Leave Link  202 at Wed Apr 10 03:14:11 2013, MaxMem=    6291456 cpu:       0.0
 (Enter /soft/g03/g03/l301.exe)
 Standard basis: 6-31G(d,p) (6D, 7F)
 AO basis set in the form of general basis input:
  1 0
 S   6 1.00       0.000000000000
      0.3047524880D+04  0.1834737132D-02
      0.4573695180D+03  0.1403732281D-01
      0.1039486850D+03  0.6884262226D-01
      0.2921015530D+02  0.2321844432D+00
      0.9286662960D+01  0.4679413484D+00
      0.3163926960D+01  0.3623119853D+00
 SP   3 1.00       0.000000000000
      0.7868272350D+01 -0.1193324198D+00  0.6899906659D-01
      0.1881288540D+01 -0.1608541517D+00  0.3164239610D+00
      0.5442492580D+00  0.1143456438D+01  0.7443082909D+00
 SP   1 1.00       0.000000000000
      0.1687144782D+00  0.1000000000D+01  0.1000000000D+01
 D   1 1.00       0.000000000000
      0.8000000000D+00  0.1000000000D+01
 ****
  2 0
 S   3 1.00       0.000000000000
      0.1873113696D+02  0.3349460434D-01
      0.2825394365D+01  0.2347269535D+00
      0.6401216923D+00  0.8137573261D+00
 S   1 1.00       0.000000000000
      0.1612777588D+00  0.1000000000D+01
 P   1 1.00       0.000000000000
      0.1100000000D+01  0.1000000000D+01
 ****
  3 0
 S   3 1.00       0.000000000000
      0.1873113696D+02  0.3349460434D-01
      0.2825394365D+01  0.2347269535D+00
      0.6401216923D+00  0.8137573261D+00
 S   1 1.00       0.000000000000
      0.1612777588D+00  0.1000000000D+01
 P   1 1.00       0.000000000000
      0.1100000000D+01  0.1000000000D+01
 ****
  4 0
 S   3 1.00       0.000000000000
      0.1873113696D+02  0.3349460434D-01
      0.2825394365D+01  0.2347269535D+00
      0.6401216923D+00  0.8137573261D+00
 S   1 1.00       0.000000000000
      0.1612777588D+00  0.1000000000D+01
 P   1 1.00       0.000000000000
      0.1100000000D+01  0.1000000000D+01
 ****
  5 0
 S   3 1.00       0.000000000000
      0.1873113696D+02  0.3349460434D-01
      0.2825394365D+01  0.2347269535D+00
      0.6401216923D+00  0.8137573261D+00
 S   1 1.00       0.000000000000
      0.1612777588D+00  0.1000000000D+01
 P   1 1.00       0.000000000000
      0.1100000000D+01  0.1000000000D+01
 ****
  6 0
 S   3 1.00       0.000000000000
      0.1873113696D+02  0.3349460434D-01
      0.2825394365D+01  0.2347269535D+00
      0.6401216923D+00  0.8137573261D+00
 S   1 1.00       0.000000000000
      0.1612777588D+00  0.1000000000D+01
 P   1 1.00       0.000000000000
      0.1100000000D+01  0.1000000000D+01
 ****

 There are    40 symmetry adapted basis functions of A   symmetry.
 Integral buffers will be    131072 words long.
 Raffenetti 2 integral format.
 Two-electron integral symmetry is turned on.
    40 basis functions,    63 primitive gaussians,    40 cartesian basis functions
     6 alpha electrons        5 beta electrons
       nuclear repulsion energy        15.6301388926 Hartrees.
 IExCor=   0 DFT=F Ex=HF Corr=None ExCW=0 ScaHFX=  1.000000
 ScaDFX=  1.000000  1.000000  1.000000  1.000000
 IRadAn=      0 IRanWt=     -1 IRanGd=            0 ICorTp=0
 NAtoms=    6 NActive=    6 NUniq=    6 SFac= 1.00D+00 NAtFMM=   60 Big=F
 Leave Link  301 at Wed Apr 10 03:14:11 2013, MaxMem=    6291456 cpu:       0.0
 (Enter /soft/g03/g03/l302.exe)
 NPDir=0 NMtPBC=     1 NCelOv=     1 NCel=       1 NClECP=     1 NCelD=      1
         NCelK=      1 NCelE2=     1 NClLst=     1 CellRange=     0.0.
 One-electron integrals computed using PRISM.
 NBasis=    40 RedAO= T  NBF=    40
 NBsUse=    40 1.00D-06 NBFU=    40
 Leave Link  302 at Wed Apr 10 03:14:11 2013, MaxMem=    6291456 cpu:       0.1
 (Enter /soft/g03/g03/l303.exe)
 DipDrv:  MaxL=1.
 Leave Link  303 at Wed Apr 10 03:14:11 2013, MaxMem=    6291456 cpu:       0.0
 (Enter /soft/g03/g03/l401.exe)
 Harris functional with IExCor=  205 diagonalized for initial guess.
 ExpMin= 1.61D-01 ExpMax= 3.05D+03 ExpMxC= 4.57D+02 IAcc=1 IRadAn=         1 AccDes= 1.00D-06
 HarFok:  IExCor= 205 AccDes= 1.00D-06 IRadAn=         1 IDoV=1
 ScaDFX=  1.000000  1.000000  1.000000  1.000000
 Harris En= -40.8498823345497    
 Initial guess orbital symmetries:
 Alpha Orbitals:
       Occupied  (A) (A) (A) (A) (A) (A)
       Virtual   (A) (A) (A) (A) (A) (A) (A) (A) (A) (A) (A) (A)
                 (A) (A) (A) (A) (A) (A) (A) (A) (A) (A) (A) (A)
                 (A) (A) (A) (A) (A) (A) (A) (A) (A) (A)
 Beta  Orbitals:
       Occupied  (A) (A) (A) (A) (A)
       Virtual   (A) (A) (A) (A) (A) (A) (A) (A) (A) (A) (A) (A)
                 (A) (A) (A) (A) (A) (A) (A) (A) (A) (A) (A) (A)
                 (A) (A) (A) (A) (A) (A) (A) (A) (A) (A) (A)
 The electronic state of the initial guess is 2-A.
 <S**2> of initial guess= 0.7500
 Leave Link  401 at Wed Apr 10 03:14:11 2013, MaxMem=    6291456 cpu:       0.1
 (Enter /soft/g03/g03/l502.exe)
 UHF open shell SCF:
 Requested convergence on RMS density matrix=1.00D-08 within 128 cycles.
 Requested convergence on MAX density matrix=1.00D-06.
 Requested convergence on             energy=1.00D-06.
 No special actions if energy rises.
 Using DIIS extrapolation, IDIIS=  1040.
 Integral symmetry usage will be decided dynamically.
 Keep R1 and R2 integrals in memory in canonical form, NReq=     1550873.
 IEnd=     23199 IEndB=     23199 NGot=   6291456 MDV=   5613304
 LenX=   5613304
 Symmetry not used in FoFDir.
 MinBra= 0 MaxBra= 2 Meth= 1.
 IRaf=       0 NMat=   1 IRICut=       1 DoRegI=T DoRafI=F ISym2E= 0 JSym2E=0.

 Cycle   1  Pass 1  IDiag  1:
 E= -40.5216261364461    
 DIIS: error= 5.59D-02 at cycle   1 NSaved=   1.
 NSaved= 1 IEnMin= 1 EnMin= -40.5216261364461     IErMin= 1 ErrMin= 5.59D-02
 ErrMax= 5.59D-02 EMaxC= 1.00D-01 BMatC= 6.04D-01 BMatP= 6.04D-01
 IDIUse=3 WtCom= 4.41D-01 WtEn= 5.59D-01
 Coeff-Com:  0.100D+01
 Coeff-En:   0.100D+01
 Coeff:      0.100D+01
 Gap=     0.696 Goal=   None    Shift=    0.000
 Gap=     0.526 Goal=   None    Shift=    0.000
 GapD=    0.526 DampG=2.000 DampE=0.500 DampFc=1.0000 IDamp=-1.
 RMSDP=1.21D-02 MaxDP=1.72D-01              OVMax= 1.82D-01

 Cycle   2  Pass 1  IDiag  1:
 E= -40.6428563626767     Delta-E=       -0.121230226231 Rises=F Damp=F
 DIIS: error= 2.24D-02 at cycle   2 NSaved=   2.
 NSaved= 2 IEnMin= 2 EnMin= -40.6428563626767     IErMin= 2 ErrMin= 2.24D-02
 ErrMax= 2.24D-02 EMaxC= 1.00D-01 BMatC= 1.08D-01 BMatP= 6.04D-01
 IDIUse=3 WtCom= 7.76D-01 WtEn= 2.24D-01
 Coeff-Com:  0.265D+00 0.735D+00
 Coeff-En:   0.000D+00 0.100D+01
 Coeff:      0.205D+00 0.795D+00
 Gap=     0.661 Goal=   None    Shift=    0.000
 Gap=     0.618 Goal=   None    Shift=    0.000
 RMSDP=3.55D-03 MaxDP=5.02D-02 DE=-1.21D-01 OVMax= 6.58D-02

 Cycle   3  Pass 1  IDiag  1:
 E= -40.6693325740962     Delta-E=       -0.026476211420 Rises=F Damp=F
 DIIS: error= 6.89D-03 at cycle   3 NSaved=   3.
 NSaved= 3 IEnMin= 3 EnMin= -40.6693325740962     IErMin= 3 ErrMin= 6.89D-03
 ErrMax= 6.89D-03 EMaxC= 1.00D-01 BMatC= 3.14D-03 BMatP= 1.08D-01
 IDIUse=3 WtCom= 9.31D-01 WtEn= 6.89D-02
 Coeff-Com: -0.480D-01 0.281D-01 0.102D+01
 Coeff-En:   0.000D+00 0.000D+00 0.100D+01
 Coeff:     -0.447D-01 0.261D-01 0.102D+01
 Gap=     0.646 Goal=   None    Shift=    0.000
 Gap=     0.620 Goal=   None    Shift=    0.000
 RMSDP=1.37D-03 MaxDP=2.84D-02 DE=-2.65D-02 OVMax= 1.63D-02

 Cycle   4  Pass 1  IDiag  1:
 E= -40.6706788671870     Delta-E=       -0.001346293091 Rises=F Damp=F
 DIIS: error= 2.10D-03 at cycle   4 NSaved=   4.
 NSaved= 4 IEnMin= 4 EnMin= -40.6706788671870     IErMin= 4 ErrMin= 2.10D-03
 ErrMax= 2.10D-03 EMaxC= 1.00D-01 BMatC= 2.61D-04 BMatP= 3.14D-03
 IDIUse=3 WtCom= 9.79D-01 WtEn= 2.10D-02
 Coeff-Com:  0.191D-01-0.476D-01-0.636D+00 0.166D+01
 Coeff-En:   0.000D+00 0.000D+00 0.000D+00 0.100D+01
 Coeff:      0.187D-01-0.466D-01-0.623D+00 0.165D+01
 Gap=     0.650 Goal=   None    Shift=    0.000
 Gap=     0.629 Goal=   None    Shift=    0.000
 RMSDP=8.14D-04 MaxDP=1.59D-02 DE=-1.35D-03 OVMax= 1.15D-02

 Cycle   5  Pass 1  IDiag  1:
 E= -40.6708768912059     Delta-E=       -0.000198024019 Rises=F Damp=F
 DIIS: error= 1.98D-04 at cycle   5 NSaved=   5.
 NSaved= 5 IEnMin= 5 EnMin= -40.6708768912059     IErMin= 5 ErrMin= 1.98D-04
 ErrMax= 1.98D-04 EMaxC= 1.00D-01 BMatC= 8.53D-06 BMatP= 2.61D-04
 IDIUse=3 WtCom= 9.98D-01 WtEn= 1.98D-03
 Coeff-Com: -0.724D-02 0.217D-01 0.266D+00-0.779D+00 0.150D+01
 Coeff-En:   0.000D+00 0.000D+00 0.000D+00 0.000D+00 0.100D+01
 Coeff:     -0.722D-02 0.217D-01 0.265D+00-0.777D+00 0.150D+01
 Gap=     0.650 Goal=   None    Shift=    0.000
 Gap=     0.630 Goal=   None    Shift=    0.000
 RMSDP=7.06D-05 MaxDP=8.72D-04 DE=-1.98D-04 OVMax= 1.44D-03

 Cycle   6  Pass 1  IDiag  1:
 E= -40.6708833324334     Delta-E=       -0.000006441228 Rises=F Damp=F
 DIIS: error= 1.10D-04 at cycle   6 NSaved=   6.
 NSaved= 6 IEnMin= 6 EnMin= -40.6708833324334     IErMin= 6 ErrMin= 1.10D-04
 ErrMax= 1.10D-04 EMaxC= 1.00D-01 BMatC= 1.18D-06 BMatP= 8.53D-06
 IDIUse=3 WtCom= 9.99D-01 WtEn= 1.10D-03
 Coeff-Com:  0.333D-02-0.104D-01-0.132D+00 0.394D+00-0.105D+01 0.179D+01
 Coeff-En:   0.000D+00 0.000D+00 0.000D+00 0.000D+00 0.000D+00 0.100D+01
 Coeff:      0.332D-02-0.104D-01-0.132D+00 0.394D+00-0.104D+01 0.179D+01
 Gap=     0.650 Goal=   None    Shift=    0.000
 Gap=     0.630 Goal=   None    Shift=    0.000
 RMSDP=4.74D-05 MaxDP=6.86D-04 DE=-6.44D-06 OVMax= 5.74D-04

 Cycle   7  Pass 1  IDiag  1:
 E= -40.6708845902047     Delta-E=       -0.000001257771 Rises=F Damp=F
 DIIS: error= 4.03D-05 at cycle   7 NSaved=   7.
 NSaved= 7 IEnMin= 7 EnMin= -40.6708845902047     IErMin= 7 ErrMin= 4.03D-05
 ErrMax= 4.03D-05 EMaxC= 1.00D-01 BMatC= 1.58D-07 BMatP= 1.18D-06
 IDIUse=1 WtCom= 1.00D+00 WtEn= 0.00D+00
 Coeff-Com: -0.123D-02 0.378D-02 0.539D-01-0.162D+00 0.517D+00-0.124D+01
 Coeff-Com:  0.183D+01
 Coeff:     -0.123D-02 0.378D-02 0.539D-01-0.162D+00 0.517D+00-0.124D+01
 Coeff:      0.183D+01
 Gap=     0.650 Goal=   None    Shift=    0.000
 Gap=     0.630 Goal=   None    Shift=    0.000
 RMSDP=2.19D-05 MaxDP=3.56D-04 DE=-1.26D-06 OVMax= 2.80D-04

 Cycle   8  Pass 1  IDiag  1:
 E= -40.6708847894986     Delta-E=       -0.000000199294 Rises=F Damp=F
 DIIS: error= 1.97D-05 at cycle   8 NSaved=   8.
 NSaved= 8 IEnMin= 8 EnMin= -40.6708847894986     IErMin= 8 ErrMin= 1.97D-05
 ErrMax= 1.97D-05 EMaxC= 1.00D-01 BMatC= 1.44D-08 BMatP= 1.58D-07
 IDIUse=1 WtCom= 1.00D+00 WtEn= 0.00D+00
 Coeff-Com:  0.391D-03-0.114D-02-0.181D-01 0.527D-01-0.185D+00 0.508D+00
 Coeff-Com: -0.105D+01 0.169D+01
 Coeff:      0.391D-03-0.114D-02-0.181D-01 0.527D-01-0.185D+00 0.508D+00
 Coeff:     -0.105D+01 0.169D+01
 Gap=     0.650 Goal=   None    Shift=    0.000
 Gap=     0.630 Goal=   None    Shift=    0.000
 RMSDP=4.96D-06 MaxDP=7.77D-05 DE=-1.99D-07 OVMax= 1.34D-04

 Cycle   9  Pass 1  IDiag  1:
 E= -40.6708848069737     Delta-E=       -0.000000017475 Rises=F Damp=F
 DIIS: error= 5.55D-06 at cycle   9 NSaved=   9.
 NSaved= 9 IEnMin= 9 EnMin= -40.6708848069737     IErMin= 9 ErrMin= 5.55D-06
 ErrMax= 5.55D-06 EMaxC= 1.00D-01 BMatC= 7.98D-10 BMatP= 1.44D-08
 IDIUse=1 WtCom= 1.00D+00 WtEn= 0.00D+00
 Coeff-Com: -0.494D-04 0.109D-03 0.288D-02-0.779D-02 0.362D-01-0.125D+00
 Coeff-Com:  0.333D+00-0.730D+00 0.149D+01
 Coeff:     -0.494D-04 0.109D-03 0.288D-02-0.779D-02 0.362D-01-0.125D+00
 Coeff:      0.333D+00-0.730D+00 0.149D+01
 Gap=     0.650 Goal=   None    Shift=    0.000
 Gap=     0.630 Goal=   None    Shift=    0.000
 RMSDP=8.93D-07 MaxDP=1.82D-05 DE=-1.75D-08 OVMax= 3.18D-05

 Cycle  10  Pass 1  IDiag  1:
 E= -40.6708848078617     Delta-E=       -0.000000000888 Rises=F Damp=F
 DIIS: error= 2.17D-06 at cycle  10 NSaved=  10.
 NSaved=10 IEnMin=10 EnMin= -40.6708848078617     IErMin=10 ErrMin= 2.17D-06
 ErrMax= 2.17D-06 EMaxC= 1.00D-01 BMatC= 1.14D-10 BMatP= 7.98D-10
 IDIUse=1 WtCom= 1.00D+00 WtEn= 0.00D+00
 Coeff-Com:  0.112D-04-0.188D-04-0.716D-03 0.170D-02-0.908D-02 0.332D-01
 Coeff-Com: -0.966D-01 0.249D+00-0.857D+00 0.168D+01
 Coeff:      0.112D-04-0.188D-04-0.716D-03 0.170D-02-0.908D-02 0.332D-01
 Coeff:     -0.966D-01 0.249D+00-0.857D+00 0.168D+01
 Gap=     0.650 Goal=   None    Shift=    0.000
 Gap=     0.630 Goal=   None    Shift=    0.000
 RMSDP=4.84D-07 MaxDP=8.01D-06 DE=-8.88D-10 OVMax= 1.48D-05

 Cycle  11  Pass 1  IDiag  1:
 E= -40.6708848080178     Delta-E=       -0.000000000156 Rises=F Damp=F
 DIIS: error= 6.47D-07 at cycle  11 NSaved=  11.
 NSaved=11 IEnMin=11 EnMin= -40.6708848080178     IErMin=11 ErrMin= 6.47D-07
 ErrMax= 6.47D-07 EMaxC= 1.00D-01 BMatC= 1.38D-11 BMatP= 1.14D-10
 IDIUse=1 WtCom= 1.00D+00 WtEn= 0.00D+00
 Coeff-Com:  0.115D-04-0.364D-04-0.484D-03 0.150D-02-0.451D-02 0.105D-01
 Coeff-Com: -0.179D-01 0.111D-01 0.159D+00-0.802D+00 0.164D+01
 Coeff:      0.115D-04-0.364D-04-0.484D-03 0.150D-02-0.451D-02 0.105D-01
 Coeff:     -0.179D-01 0.111D-01 0.159D+00-0.802D+00 0.164D+01
 Gap=     0.650 Goal=   None    Shift=    0.000
 Gap=     0.630 Goal=   None    Shift=    0.000
 RMSDP=3.08D-07 MaxDP=6.22D-06 DE=-1.56D-10 OVMax= 6.30D-06

 Cycle  12  Pass 1  IDiag  1:
 E= -40.6708848080390     Delta-E=       -0.000000000021 Rises=F Damp=F
 DIIS: error= 8.86D-08 at cycle  12 NSaved=  12.
 NSaved=12 IEnMin=12 EnMin= -40.6708848080390     IErMin=12 ErrMin= 8.86D-08
 ErrMax= 8.86D-08 EMaxC= 1.00D-01 BMatC= 6.20D-13 BMatP= 1.38D-11
 IDIUse=1 WtCom= 1.00D+00 WtEn= 0.00D+00
 Coeff-Com: -0.255D-05 0.678D-05 0.131D-03-0.374D-03 0.148D-02-0.449D-02
 Coeff-Com:  0.108D-01-0.204D-01 0.227D-01 0.732D-01-0.426D+00 0.134D+01
 Coeff:     -0.255D-05 0.678D-05 0.131D-03-0.374D-03 0.148D-02-0.449D-02
 Coeff:      0.108D-01-0.204D-01 0.227D-01 0.732D-01-0.426D+00 0.134D+01
 Gap=     0.650 Goal=   None    Shift=    0.000
 Gap=     0.630 Goal=   None    Shift=    0.000
 RMSDP=7.03D-08 MaxDP=1.54D-06 DE=-2.12D-11 OVMax= 9.38D-07

 Cycle  13  Pass 1  IDiag  1:
 E= -40.6708848080398     Delta-E=       -0.000000000001 Rises=F Damp=F
 DIIS: error= 1.48D-08 at cycle  13 NSaved=  13.
 NSaved=13 IEnMin=13 EnMin= -40.6708848080398     IErMin=13 ErrMin= 1.48D-08
 ErrMax= 1.48D-08 EMaxC= 1.00D-01 BMatC= 2.63D-14 BMatP= 6.20D-13
 IDIUse=1 WtCom= 1.00D+00 WtEn= 0.00D+00
 Coeff-Com:  0.347D-06-0.562D-06-0.235D-04 0.585D-04-0.307D-03 0.109D-02
 Coeff-Com: -0.289D-02 0.685D-02-0.164D-01 0.182D-01 0.593D-01-0.443D+00
 Coeff-Com:  0.138D+01
 Coeff:      0.347D-06-0.562D-06-0.235D-04 0.585D-04-0.307D-03 0.109D-02
 Coeff:     -0.289D-02 0.685D-02-0.164D-01 0.182D-01 0.593D-01-0.443D+00
 Coeff:      0.138D+01
 Gap=     0.650 Goal=   None    Shift=    0.000
 Gap=     0.630 Goal=   None    Shift=    0.000
 RMSDP=5.83D-09 MaxDP=1.16D-07 DE=-8.03D-13 OVMax= 7.93D-08

 SCF Done:  E(UHF) =  -40.6708848080     A.U. after   13 cycles
             Convg  =    0.5831D-08             -V/T =  2.0001
             S**2   =   0.7679
 KE= 4.066829555163D+01 PE=-1.251476528744D+02 EE= 2.817833362218D+01
 Annihilation of the first spin contaminant:
 S**2 before annihilation     0.7679,   after     0.7500
 Leave Link  502 at Wed Apr 10 03:14:11 2013, MaxMem=    6291456 cpu:       0.1
 (Enter /soft/g03/g03/l801.exe)
 ExpMin= 1.61D-01 ExpMax= 3.05D+03 ExpMxC= 4.57D+02 IAcc=1 IRadAn=         1 AccDes= 1.00D-06
 HarFok:  IExCor= 205 AccDes= 1.00D-06 IRadAn=         1 IDoV=1
 ScaDFX=  1.000000  1.000000  1.000000  1.000000
 Largest valence mixing into a core orbital is  1.69D-04
 Largest core mixing into a valence orbital is  2.40D-05
 Largest valence mixing into a core orbital is  1.88D-04
 Largest core mixing into a valence orbital is  2.93D-05
 Range of M.O.s used for correlation:     2    40
 NBasis=    40 NAE=     6 NBE=     5 NFC=     1 NFV=     0
 NROrb=     39 NOA=     5 NOB=     4 NVA=    34 NVB=    35
 Leave Link  801 at Wed Apr 10 03:14:11 2013, MaxMem=    6291456 cpu:       0.0
 (Enter /soft/g03/g03/l906.exe)
 Frozen-core derivative calculation, NFC=   1 NFV=   0.
 FulOut=F Deriv=T AODrv=T NAtomX=     6
   MMem=           0  MDisk=           5 MDiskD=           5
  W3Min=       19200 MinDsk=      102260 NBas6D=          40
 NBas2D=         862    NTT=         820    LW2=     3000000
    MDV=     6280212 MDiskM=        2277 NBas2p=         862
 Disk-based method using ON**2 memory for  5 occupieds at a time.
 Permanent disk used for amplitudes=       50065 words.
 Estimated scratch disk usage=     1096240 words.
 IMap=   1   2   3   4   5   6
 Actual    scratch disk usage=     1096240 words.
 JobTyp=2 Pass  1:  I=   2 to   6 NPSUse=  1 ParTrn=F ParDer=F DoDerP=T.
 (rs|ai) integrals will be sorted in core.
 IMap=   1   2   3   4   5
 Actual    scratch disk usage=     1096240 words.
 JobTyp=3 Pass  1:  I=   2 to   5 NPSUse=  1 ParTrn=F ParDer=F DoDerP=T.
 (rs|ai) integrals will be sorted in core.
 Spin components of T(2) and E(2):
     alpha-alpha T2 =       0.5650864478D-02 E2=     -0.1739022769D-01
     alpha-beta  T2 =       0.4315385002D-01 E2=     -0.1369362969D+00
     beta-beta   T2 =       0.4640092002D-02 E2=     -0.1354767911D-01
 The integrals were generated   2 times.
 (S**2,0)=  0.76787D+00           (S**2,1)=  0.75571D+00
 E(PUHF)=      -0.40674680685D+02        E(PMP2)=      -0.40841264740D+02
 ANorm=    0.1026374594D+01
 E2 =    -0.1678742037D+00 EUMP2 =    -0.40838759011756D+02
 Leave Link  906 at Wed Apr 10 03:14:16 2013, MaxMem=    6291456 cpu:       4.0
 (Enter /soft/g03/g03/l1101.exe)
 Using compressed Sx but separate Hx and Fx, NAtomX=     6.
 Will process   7 centers per pass.
 Leave Link 1101 at Wed Apr 10 03:14:16 2013, MaxMem=    6291456 cpu:       0.1
 (Enter /soft/g03/g03/l1102.exe)
 Use density number 0.
 Leave Link 1102 at Wed Apr 10 03:14:16 2013, MaxMem=    6291456 cpu:       0.0
 (Enter /soft/g03/g03/l1110.exe)
 Forming Gx(P) for the SCF density, NAtomX=     6.
 Integral derivatives from FoFDir, PRISM(SPDF).
 Do as many integral derivatives as possible in FoFDir.
 G2DrvN: MDV=       6291406.
 G2DrvN: will do    7 centers at a time, making    1 passes doing MaxLOS=2.
 Symmetry not used in FoFDir.
 MinBra= 0 MaxBra= 2 Meth= 1.
 IRaf=       0 NMat=   1 IRICut=       1 DoRegI=T DoRafI=F ISym2E= 0 JSym2E=0.
 FoFDir/FoFCou used for L=0 through L=2.
 Leave Link 1110 at Wed Apr 10 03:14:16 2013, MaxMem=    6291456 cpu:       0.2
 (Enter /soft/g03/g03/l1002.exe)
 Minotr:  UHF wavefunction.
 DoAtom=TTTTTT
          Frozen-core window.
          Direct CPHF calculation.
          Solving linear equations simultaneously.
          Differentiating once with respect to electric field.
                with respect to dipole field.
          Differentiating once with respect to nuclear coordinates.
          Requested convergence is 1.0D-08 RMS, and 1.0D-07 maximum.
          Secondary convergence is 1.0D-12 RMS, and 1.0D-12 maximum.
          NewPWx=T KeepS1=T KeepF1=T KeepIn=T MapXYZ=F.
          MDV=       6291400 using IRadAn=       2.
          Store integrals in memory, NReq=     1493710.
 Symmetry not used in FoFDir.
 MinBra= 0 MaxBra= 2 Meth= 1.
 IRaf=       0 NMat=   1 IRICut=       1 DoRegI=T DoRafI=F ISym2E= 0 JSym2E=0.
          There are  21 degrees of freedom in the 1st order CPHF.
    18 vectors were produced by pass  0.
 AX will form  18 AO Fock derivatives at one time.
    18 vectors were produced by pass  1.
    18 vectors were produced by pass  2.
    18 vectors were produced by pass  3.
    18 vectors were produced by pass  4.
    18 vectors were produced by pass  5.
    13 vectors were produced by pass  6.
     3 vectors were produced by pass  7.
 Inv2:  IOpt= 1 Iter= 1 AM= 2.49D-15 Conv= 1.00D-12.
 Inverted reduced A of dimension  124 with in-core refinement.
 Saving first derivative matrices.
 End of Minotr Frequency-dependent properties file   721 does not exist.
 Leave Link 1002 at Wed Apr 10 03:14:16 2013, MaxMem=    6291456 cpu:       0.3
 (Enter /soft/g03/g03/l811.exe)
 MDV=     6291456.
 Form MO integral derivatives with frozen-active canonical formalism.
 MOERI=1 MOERIx=1 NAtoms=     6 NAtomA=     6 NAtomX=     6.
 Discarding MO integrals.
 MO basis two electron integral derivatives will not be stored on disk.
 IAlg= 3 DoFC=T DoPWx=T Debug=F.
 Frozen-core window:  NFC=   1 NFV=   0.
             Reordered first order wavefunction length =       207461
 In DefCFB: NBatch=  1, ICI=  6, ICA= 35, LFMax= 12
             Large arrays: LIAPS=     2425600, LIARS=     1764000 words.
  In StABat: MaxSiz= 15 MinSiz= 10 NAtomB=  3
 DoIAMN:  NPSUse=  1.
 In DefCFB: NBatch=  1, ICI=  6, ICA= 35, LFMax= 12
             Large arrays: LIAPS=     2425600, LIARS=     1764000 words.
  In StABat: MaxSiz= 15 MinSiz= 10 NAtomB=  3
 Leave Link  811 at Wed Apr 10 03:14:18 2013, MaxMem=    6291456 cpu:       1.8
 (Enter /soft/g03/g03/l804.exe)
 Frozen-core window:  NFC=   1 NFV=   0.
 Open-shell transformation, MDV=     6291456 ITran=4 ISComp=1.
 Compute canonical integrals, LenV=     5604917.
 Symmetry not used in FoFDir.
 MinBra= 0 MaxBra= 2 Meth= 1.
 IRaf=       0 NMat=   1 IRICut=       1 DoRegI=T DoRafI=F ISym2E= 0 JSym2E=0.
 Compute canonical integrals, LenV=     5604917.
 SymMOI:  orbitals are not symmetric.
 Spin components of T(2) and E(2):
     alpha-alpha T2 =       0.5650864478D-02 E2=     -0.1739022769D-01
     alpha-beta  T2 =       0.4315385002D-01 E2=     -0.1369362969D+00
     beta-beta   T2 =       0.4640092002D-02 E2=     -0.1354767911D-01
 ANorm=    0.1451512870D+01
 E2=       -0.1678742037D+00 EUMP2=       -0.40838759011756D+02
 (S**2,0)=  0.76787D+00           (S**2,1)=  0.75571D+00
 E(PUHF)=      -0.40674680685D+02        E(PMP2)=      -0.40841264740D+02
 Leave Link  804 at Wed Apr 10 03:14:19 2013, MaxMem=    6291456 cpu:       0.2
 (Enter /soft/g03/g03/l1002.exe)
 Minotr:  UHF wavefunction.
          Computing MP2 derivatives.
          Using Z-Vector for PSCF gradient.
          Skipping F1 and S1 gradient terms here.
 DoAtom=TTTTTT
          Frozen-core window.
          Using MO integrals in the linear equations.
          Forming densities via direct SCF.
          Solving linear equations simultaneously.
          Differentiating once with respect to electric field.
                with respect to dipole field.
          Differentiating once with respect to nuclear coordinates.
          Requested convergence is 1.0D-10 RMS, and 1.0D-09 maximum.
          Secondary convergence is 1.0D-12 RMS, and 1.0D-12 maximum.
          NewPWx=F KeepS1=T KeepF1=T KeepIn=T MapXYZ=F.
          MDV=       6291400 using IRadAn=       0.
          There are   1 degrees of freedom in the 1st order CPHF.
 Petite list used in FoFDir.
 MinBra= 0 MaxBra= 2 Meth= 1.
 IRaf=       0 NMat=   1 IRICut=       1 DoRegI=T DoRafI=F ISym2E= 1 JSym2E=1.
     1 vectors were produced by pass  0.
     1 vectors were produced by pass  1.
     1 vectors were produced by pass  2.
     1 vectors were produced by pass  3.
     1 vectors were produced by pass  4.
     1 vectors were produced by pass  5.
     1 vectors were produced by pass  6.
     1 vectors were produced by pass  7.
     1 vectors were produced by pass  8.
     1 vectors were produced by pass  9.
     1 vectors were produced by pass 10.
 Inv2:  IOpt= 1 Iter= 1 AM= 4.38D-16 Conv= 1.00D-12.
 Inverted reduced A of dimension   11 with in-core refinement.
 End of Minotr Frequency-dependent properties file   721 does not exist.
 Leave Link 1002 at Wed Apr 10 03:14:19 2013, MaxMem=    6291456 cpu:       0.1
 (Enter /soft/g03/g03/l1102.exe)
 Use density number 2.
 Symmetrizing basis deriv contribution to polar:
 IMax=3 JMax=2 DiffMx= 0.00D+00
 Leave Link 1102 at Wed Apr 10 03:14:19 2013, MaxMem=    6291456 cpu:       0.0
 (Enter /soft/g03/g03/l1110.exe)
 Forming Gx(P) for generalized density number  2 NAtomX=     6.
 Integral derivatives from FoFDir, PRISM(SPDF).
 Do as many integral derivatives as possible in FoFDir.
 G2DrvN: MDV=       6291406.
 G2DrvN: will do    7 centers at a time, making    1 passes doing MaxLOS=2.
 Symmetry not used in FoFDir.
 MinBra= 0 MaxBra= 2 Meth= 1.
 IRaf=       0 NMat=   1 IRICut=       1 DoRegI=T DoRafI=F ISym2E= 0 JSym2E=0.
 FoFDir/FoFCou used for L=0 through L=2.
 Leave Link 1110 at Wed Apr 10 03:14:19 2013, MaxMem=    6291456 cpu:       0.2
 (Enter /soft/g03/g03/l1112.exe)
 MP22nd: MDV=       6291456
 This link is doing NAtomX=     6 total of    21 degrees of freedom.
 Using ON3 I/O method in MakUI.
 Frozen-core window:  NFC=   1 NFV=   0.
 Using Ix for Sx.
 Use MO integrals over full window.
 Using OV2 memory method for fx*t*t/D, MaxI=  6 Force3=T.
 R2 and R3 integrals will be kept in memory, NReq=     1493220.
 Symmetry not used in FoFDir.
 MinBra= 0 MaxBra= 2 Meth= 1.
 IRaf=       0 NMat=   1 IRICut=       1 DoRegI=T DoRafI=F ISym2E= 0 JSym2E=0.
 DD1Dir will call FoFMem   1 times, MxPair=        86
 NAB=    30 NAA=    15 NBB=    10.
 Symmetry is being used.
 Discarding MO integrals.
 Leave Link 1112 at Wed Apr 10 03:14:20 2013, MaxMem=    6291456 cpu:       0.8
 (Enter /soft/g03/g03/l601.exe)
 Copying SCF densities to generalized density rwf, ISCF=1 IROHF=0.

 **********************************************************************

            Population analysis using the SCF density.

 **********************************************************************

 Orbital symmetries:
 Alpha Orbitals:
       Occupied  (A) (A) (A) (A) (A) (A)
       Virtual   (A) (A) (A) (A) (A) (A) (A) (A) (A) (A) (A) (A)
                 (A) (A) (A) (A) (A) (A) (A) (A) (A) (A) (A) (A)
                 (A) (A) (A) (A) (A) (A) (A) (A) (A) (A)
 Beta  Orbitals:
       Occupied  (A) (A) (A) (A) (A)
       Virtual   (A) (A) (A) (A) (A) (A) (A) (A) (A) (A) (A) (A)
                 (A) (A) (A) (A) (A) (A) (A) (A) (A) (A) (A) (A)
                 (A) (A) (A) (A) (A) (A) (A) (A) (A) (A) (A)
 The electronic state is 2-A.
 Alpha  occ. eigenvalues --  -11.22702  -0.96355  -0.62345  -0.56418  -0.56418
 Alpha  occ. eigenvalues --   -0.38905
 Alpha virt. eigenvalues --    0.26137   0.32021   0.32021   0.37823   0.71798
 Alpha virt. eigenvalues --    0.71798   0.74576   0.91898   1.13945   1.13945
 Alpha virt. eigenvalues --    1.17859   1.18866   1.42964   1.61272   1.61272
 Alpha virt. eigenvalues --    2.12860   2.12860   2.13405   2.32730   2.32730
 Alpha virt. eigenvalues --    2.32827   2.47080   2.47080   2.75197   2.86791
 Alpha virt. eigenvalues --    2.96921   2.96921   3.20622   3.20622   3.56054
 Alpha virt. eigenvalues --    3.79859   3.79859   4.05455   4.90969
  Beta  occ. eigenvalues --  -11.21638  -0.92973  -0.55826  -0.55826  -0.52862
  Beta virt. eigenvalues --    0.10147   0.26869   0.32544   0.32544   0.42086
  Beta virt. eigenvalues --    0.71955   0.71955   0.79476   1.04723   1.14672
  Beta virt. eigenvalues --    1.14672   1.18604   1.21223   1.45198   1.63057
  Beta virt. eigenvalues --    1.63057   2.18114   2.18831   2.18831   2.32665
  Beta virt. eigenvalues --    2.33878   2.33878   2.51105   2.51105   2.79652
  Beta virt. eigenvalues --    2.87890   2.97283   2.97283   3.21260   3.21261
  Beta virt. eigenvalues --    3.56772   3.80282   3.80282   4.08271   4.92158
     Alpha Molecular Orbital Coefficients
                           1         2         3         4         5
                        (A)--O    (A)--O    (A)--O    (A)--O    (A)--O
     EIGENVALUES --   -11.22702  -0.96355  -0.62345  -0.56418  -0.56418
   1 1   C  1S          0.99563  -0.19524   0.02982   0.00000   0.00000
   2        2S          0.02886   0.37436  -0.04841   0.00000   0.00000
   3        2PX         0.00007   0.00684   0.08194   0.27791   0.31835
   4        2PY         0.00011   0.01053   0.12626   0.26550  -0.29855
   5        2PZ         0.00023   0.02222   0.26640  -0.21132   0.04358
   6        3S         -0.01452   0.36401  -0.07394   0.00000   0.00000
   7        3PX        -0.00029   0.00215   0.03778   0.13622   0.15605
   8        3PY        -0.00045   0.00332   0.05822   0.13014  -0.14634
   9        3PZ        -0.00094   0.00700   0.12284  -0.10358   0.02136
  10        4XX        -0.00186  -0.00209  -0.00796  -0.01008   0.01523
  11        4YY        -0.00185  -0.00153  -0.00439   0.00472  -0.00936
  12        4ZZ        -0.00175   0.00183   0.01690   0.00536  -0.00586
  13        4XY         0.00002   0.00073   0.00462  -0.02513  -0.01113
  14        4XZ         0.00004   0.00154   0.00975   0.00668  -0.01022
  15        4YZ         0.00007   0.00237   0.01503  -0.00326   0.01800
  16 2   H  1S          0.00002   0.13358  -0.08010   0.09967   0.25711
  17        2S          0.00241   0.03794  -0.06008   0.08221   0.21207
  18        3PX         0.00017  -0.01044   0.00616  -0.00137  -0.00938
  19        3PY        -0.00009   0.00665  -0.00070   0.00729   0.00436
  20        3PZ        -0.00004   0.00404   0.00299  -0.00113   0.00573
  21 3   H  1S          0.00002   0.13358  -0.08010   0.17283  -0.21487
  22        2S          0.00241   0.03794  -0.06008   0.14255  -0.17723
  23        3PX        -0.00004   0.00304   0.00011   0.00675   0.00136
  24        3PY         0.00016  -0.00999   0.00675  -0.00518   0.00690
  25        3PZ        -0.00009   0.00778   0.00132   0.00368  -0.00779
  26 4   H  1S          0.00002   0.13358  -0.08010  -0.27250  -0.04224
  27        2S          0.00241   0.03794  -0.06009  -0.22476  -0.03484
  28        3PX        -0.00015   0.01019  -0.00309  -0.01025   0.00246
  29        3PY        -0.00010   0.00763  -0.00114  -0.00676  -0.00604
  30        3PZ         0.00007  -0.00277   0.00604   0.00115   0.00130
  31 5   H  1S         -0.00013   0.12761   0.23232   0.00000   0.00000
  32        2S          0.00441   0.03596   0.16790   0.00000   0.00000
  33        3PX         0.00009  -0.00319   0.00047   0.00427   0.00489
  34        3PY         0.00013  -0.00491   0.00072   0.00408  -0.00459
  35        3PZ         0.00028  -0.01036   0.00152  -0.00325   0.00067
  36 6   H  1S         -0.00022   0.04027   0.26845   0.00000   0.00000
  37        2S         -0.00112   0.02372   0.30471   0.00000   0.00000
  38        3PX         0.00005  -0.00084  -0.00242   0.00068   0.00078
  39        3PY         0.00008  -0.00130  -0.00373   0.00065  -0.00073
  40        3PZ         0.00016  -0.00275  -0.00787  -0.00051   0.00011
                           6         7         8         9        10
                        (A)--O    (A)--V    (A)--V    (A)--V    (A)--V
     EIGENVALUES --    -0.38905   0.26137   0.32021   0.32021   0.37823
   1 1   C  1S          0.03165  -0.14637   0.00000   0.00000   0.06245
   2        2S         -0.06826   0.09964   0.00000   0.00000  -0.02755
   3        2PX        -0.10371  -0.03201  -0.19331   0.21879  -0.05197
   4        2PY        -0.15981  -0.04933   0.22821   0.15526  -0.08008
   5        2PZ        -0.33719  -0.10408  -0.04870  -0.14088  -0.16896
   6        3S         -0.15942   2.65353   0.00000   0.00000  -1.35228
   7        3PX        -0.07053  -0.09629  -0.97585   1.10445  -0.42927
   8        3PY        -0.10867  -0.14837   1.15202   0.78378  -0.66146
   9        3PZ        -0.22929  -0.31305  -0.24585  -0.71118  -1.39562
  10        4XX         0.00756  -0.01304   0.00444   0.00369  -0.00593
  11        4YY         0.00482  -0.01221  -0.00154   0.00002  -0.00118
  12        4ZZ        -0.01152  -0.00730  -0.00290  -0.00370   0.02714
  13        4XY        -0.00355   0.00107  -0.00275   0.01001   0.00615
  14        4XZ        -0.00749   0.00225  -0.00549  -0.00015   0.01297
  15        4YZ        -0.01153   0.00347   0.00785   0.00110   0.01999
  16 2   H  1S          0.04846  -0.01025   0.06110  -0.03332  -0.06773
  17        2S          0.07747  -1.19354   1.69853  -0.92635  -0.17111
  18        3PX        -0.00455  -0.00016  -0.00539   0.00584  -0.00130
  19        3PY        -0.00130  -0.00236   0.00582   0.00398  -0.00212
  20        3PZ        -0.00524  -0.00405  -0.00158  -0.00342  -0.00443
  21 3   H  1S          0.04846  -0.01025  -0.05941  -0.03625  -0.06773
  22        2S          0.07747  -1.19354  -1.65151  -1.00779  -0.17111
  23        3PX        -0.00116  -0.00141  -0.00490   0.00563  -0.00137
  24        3PY        -0.00548  -0.00082   0.00633   0.00427  -0.00204
  25        3PZ        -0.00430  -0.00440  -0.00102  -0.00347  -0.00445
  26 4   H  1S          0.04847  -0.01025  -0.00169   0.06957  -0.06773
  27        2S          0.07747  -1.19353  -0.04702   1.93415  -0.17111
  28        3PX         0.00063  -0.00207  -0.00495   0.00577  -0.00141
  29        3PY        -0.00105  -0.00245   0.00584   0.00398  -0.00213
  30        3PZ        -0.00696  -0.00342  -0.00123  -0.00421  -0.00439
  31 5   H  1S         -0.12298   0.02441   0.00000   0.00000   0.22538
  32        2S         -0.18297  -0.44704   0.00000   0.00000   3.15001
  33        3PX         0.00678   0.00038  -0.00381   0.00431   0.00012
  34        3PY         0.01045   0.00058   0.00449   0.00306   0.00019
  35        3PZ         0.02204   0.00123  -0.00096  -0.00277   0.00040
  36 6   H  1S          0.33175   0.03824   0.00000   0.00000   0.05308
  37        2S          0.64808   0.21228   0.00000   0.00000  -1.45889
  38        3PX         0.00015  -0.00049  -0.00394   0.00446  -0.00565
  39        3PY         0.00023  -0.00076   0.00466   0.00317  -0.00870
  40        3PZ         0.00048  -0.00161  -0.00099  -0.00287  -0.01835
                          11        12        13        14        15
                        (A)--V    (A)--V    (A)--V    (A)--V    (A)--V
     EIGENVALUES --     0.71798   0.71798   0.74576   0.91898   1.13945
   1 1   C  1S          0.00000   0.00000   0.01380  -0.02498   0.00000
   2        2S          0.00000   0.00000  -0.04483  -0.19996   0.00000
   3        2PX        -0.65343   0.22756  -0.23813  -0.04285   0.53263
   4        2PY        -0.13564  -0.63994  -0.36694  -0.06603  -0.58715
   5        2PZ         0.26528   0.23331  -0.77419  -0.13931   0.11445
   6        3S          0.00000   0.00000  -0.18618   0.65314   0.00000
   7        3PX         1.30201  -0.45343   0.31891  -0.01876  -0.86669
   8        3PY         0.27028   1.27513   0.49140  -0.02891   0.95540
   9        3PZ        -0.52859  -0.46489   1.03677  -0.06099  -0.18624
  10        4XX         0.00559   0.04691   0.02413  -0.05543  -0.14526
  11        4YY         0.00217  -0.02381   0.01559  -0.04831   0.07905
  12        4ZZ        -0.00776  -0.02310  -0.03533  -0.00588   0.06621
  13        4XY         0.07409   0.00787  -0.01105   0.00921   0.08606
  14        4XZ         0.00199  -0.03400  -0.02333   0.01943   0.11952
  15        4YZ        -0.01586   0.04889  -0.03594   0.02995  -0.18958
  16 2   H  1S         -0.38639   0.31435   0.17353  -0.19022  -0.68533
  17        2S         -0.14891   0.12114   0.00858  -0.08558   1.43778
  18        3PX         0.03151  -0.01736  -0.00709  -0.02035  -0.09538
  19        3PY        -0.00488   0.02438   0.00548   0.00439   0.04261
  20        3PZ        -0.01224  -0.00226   0.00435  -0.00644   0.06395
  21 3   H  1S         -0.07905  -0.49180   0.17353  -0.19022   0.63760
  22        2S         -0.03046  -0.18953   0.00858  -0.08558  -1.33765
  23        3PX         0.01698  -0.01115   0.00264   0.00085   0.00376
  24        3PY         0.00639   0.03419  -0.00652  -0.02177   0.07577
  25        3PZ        -0.00924  -0.01896   0.00705  -0.00056  -0.08806
  26 4   H  1S          0.46543   0.17744   0.17354  -0.19022   0.04773
  27        2S          0.17937   0.06838   0.00858  -0.08559  -0.10013
  28        3PX         0.03372  -0.00011   0.00778   0.01208   0.03218
  29        3PY         0.01556   0.02194   0.00618   0.00593  -0.05287
  30        3PZ        -0.01189  -0.00813  -0.00056  -0.01714   0.01134
  31 5   H  1S          0.00001   0.00000  -0.30652  -0.13146   0.00000
  32        2S          0.00000   0.00000   0.26172  -0.15320   0.00000
  33        3PX         0.02081  -0.00725   0.02256  -0.02488   0.03371
  34        3PY         0.00432   0.02039   0.03477  -0.03833  -0.03716
  35        3PZ        -0.00845  -0.00743   0.07335  -0.08088   0.00724
  36 6   H  1S          0.00000   0.00000   0.01202  -1.16618   0.00000
  37        2S          0.00000   0.00000  -0.37322   1.20126   0.00000
  38        3PX         0.02316  -0.00807  -0.00689   0.00864  -0.00814
  39        3PY         0.00481   0.02269  -0.01061   0.01332   0.00897
  40        3PZ        -0.00941  -0.00827  -0.02239   0.02809  -0.00175
                          16        17        18        19        20
                        (A)--V    (A)--V    (A)--V    (A)--V    (A)--V
     EIGENVALUES --     1.13945   1.17859   1.18866   1.42964   1.61272
   1 1   C  1S          0.00000   0.03615  -0.06922  -0.12274   0.00000
   2        2S         -0.00001  -1.15911   0.32989  -1.94059   0.00000
   3        2PX        -0.55842   0.12432   0.07841  -0.07422  -0.00522
   4        2PY        -0.43308   0.19157   0.12083  -0.11437   0.00928
   5        2PZ         0.37702   0.40419   0.25494  -0.24132  -0.00279
   6        3S          0.00001   2.27497  -0.67567   5.63882  -0.00001
   7        3PX         0.90866  -0.26150  -0.23445   0.30480   0.01233
   8        3PY         0.70470  -0.40295  -0.36127   0.46966  -0.02192
   9        3PZ        -0.61349  -0.85019  -0.76225   0.99096   0.00659
  10        4XX        -0.09122   0.04985   0.01030  -0.13937  -0.39491
  11        4YY         0.02634   0.01994  -0.00883  -0.12478   0.58079
  12        4ZZ         0.06488  -0.15845  -0.12290  -0.03778  -0.18588
  13        4XY        -0.26022  -0.03873  -0.02477   0.01889   0.05052
  14        4XZ         0.04174  -0.08171  -0.05225   0.03985  -0.19860
  15        4YZ        -0.02278  -0.12591  -0.08052   0.06141   0.22636
  16 2   H  1S          0.34057   0.47600  -0.29519  -0.42521   0.00231
  17        2S         -0.71449  -1.09270  -0.07167  -0.65800  -0.00930
  18        3PX         0.02448   0.08528  -0.01691  -0.00246  -0.14300
  19        3PY        -0.07774  -0.03471   0.03416   0.00210  -0.17147
  20        3PZ         0.00208  -0.00025   0.04562   0.00185  -0.09503
  21 3   H  1S          0.42323   0.47599  -0.29518  -0.42521  -0.00287
  22        2S         -0.88791  -1.09269  -0.07167  -0.65800   0.01156
  23        3PX        -0.06866  -0.01322   0.01880   0.00103   0.12101
  24        3PY         0.04691   0.08685  -0.00990  -0.00221   0.15851
  25        3PZ        -0.03496  -0.02756   0.05552   0.00281   0.16119
  26 4   H  1S         -0.76380   0.47600  -0.29518  -0.42521   0.00056
  27        2S          1.60239  -1.09270  -0.07167  -0.65801  -0.00225
  28        3PX         0.10649  -0.06539   0.03771   0.00288   0.12763
  29        3PY         0.07914  -0.04187   0.03676   0.00235  -0.17482
  30        3PZ        -0.00918   0.04949   0.02759   0.00008  -0.00966
  31 5   H  1S          0.00000  -0.37606  -1.16116   0.12243   0.00000
  32        2S          0.00000   1.10025   2.49249  -2.97020   0.00001
  33        3PX        -0.03535  -0.00300  -0.01843   0.02204  -0.13140
  34        3PY        -0.02741  -0.00462  -0.02840   0.03396   0.23357
  35        3PZ         0.02386  -0.00975  -0.05993   0.07165  -0.07028
  36 6   H  1S          0.00000  -0.17162   0.26607   0.36167   0.00000
  37        2S          0.00000  -0.18780  -0.99502   0.54478   0.00000
  38        3PX         0.00853   0.00070   0.02775   0.01273  -0.03772
  39        3PY         0.00662   0.00107   0.04276   0.01961   0.06704
  40        3PZ        -0.00576   0.00226   0.09022   0.04137  -0.02017
                          21        22        23        24        25
                        (A)--V    (A)--V    (A)--V    (A)--V    (A)--V
     EIGENVALUES --     1.61272   2.12860   2.12860   2.13405   2.32730
   1 1   C  1S          0.00000  -0.00001  -0.00001   0.05098   0.00000
   2        2S          0.00001   0.00000   0.00000   0.06474   0.00000
   3        2PX         0.00924   0.00150   0.05267  -0.05310   0.01629
   4        2PY         0.00380   0.04923  -0.00766  -0.08182  -0.08650
   5        2PZ        -0.00464  -0.02376  -0.01254  -0.17264   0.03599
   6        3S         -0.00003   0.00010   0.00009  -0.92521   0.00000
   7        3PX        -0.02181  -0.00472  -0.16629   0.00775  -0.11091
   8        3PY        -0.00897  -0.15540   0.02421   0.01195   0.58890
   9        3PZ         0.01095   0.07509   0.03966   0.02527  -0.24499
  10        4XX         0.22824  -0.01562  -0.06494  -0.15801  -0.37368
  11        4YY         0.19941  -0.09203   0.01222  -0.08635   0.18832
  12        4ZZ        -0.42765   0.10764   0.05271   0.34101   0.18536
  13        4XY        -0.03696  -0.04871  -0.07496   0.09276  -0.15128
  14        4XZ         0.49330   0.02346  -0.12313   0.19573   0.26103
  15        4YZ         0.13131  -0.10449   0.04280   0.30161  -0.35714
  16 2   H  1S         -0.00198   0.01411  -0.04276   0.25962   0.27519
  17        2S          0.00797  -0.04103   0.12403  -0.00397   0.01872
  18        3PX         0.02953   0.02575  -0.15954   0.00674   0.07924
  19        3PY        -0.08250  -0.03767  -0.08774  -0.08268  -0.28445
  20        3PZ         0.21870   0.10744  -0.20400  -0.13354   0.19300
  21 3   H  1S         -0.00101  -0.04411   0.00909   0.25962  -0.54752
  22        2S          0.00407   0.12793  -0.02648  -0.00396  -0.03726
  23        3PX        -0.17355  -0.07000  -0.06121  -0.04846   0.02094
  24        3PY         0.04561  -0.19567   0.03690  -0.01458  -0.37453
  25        3PZ         0.12820  -0.18965   0.06426  -0.14885   0.00680
  26 4   H  1S          0.00299   0.02991   0.03358   0.25963   0.27233
  27        2S         -0.01204  -0.08689  -0.09755  -0.00400   0.01853
  28        3PX        -0.04279   0.03713  -0.03119  -0.07767   0.07763
  29        3PY        -0.03996  -0.00211   0.08755  -0.08667  -0.28511
  30        3PZ        -0.25301   0.19605   0.19988  -0.10562   0.19296
  31 5   H  1S          0.00000   0.00003   0.00003  -0.28489   0.00000
  32        2S          0.00002  -0.00012  -0.00011   1.06841   0.00001
  33        3PX         0.23236   0.01200   0.42290  -0.10693   0.01343
  34        3PY         0.09558   0.39522  -0.06156  -0.16480  -0.07128
  35        3PZ        -0.11677  -0.19095  -0.10085  -0.34783   0.02966
  36 6   H  1S          0.00000  -0.00003  -0.00003   0.22673   0.00000
  37        2S         -0.00001   0.00007   0.00007  -0.57659   0.00000
  38        3PX         0.06669   0.02102   0.74223   0.13562   0.04365
  39        3PY         0.02743   0.69362  -0.10812   0.20891  -0.23174
  40        3PZ        -0.03352  -0.33530  -0.17713   0.44053   0.09641
                          26        27        28        29        30
                        (A)--V    (A)--V    (A)--V    (A)--V    (A)--V
     EIGENVALUES --     2.32730   2.32827   2.47080   2.47080   2.75197
   1 1   C  1S          0.00000   0.00000   0.00000   0.00000  -0.05884
   2        2S          0.00000   0.00000   0.00000   0.00000  -0.20216
   3        2PX        -0.09016   0.00000   0.03934  -0.03663   0.04346
   4        2PY        -0.00455  -0.00003   0.02967   0.04125   0.06696
   5        2PZ         0.02989   0.00001  -0.02616  -0.00829   0.14129
   6        3S          0.00000   0.00000   0.00001   0.00000   1.53571
   7        3PX         0.61381   0.00003  -0.08705   0.08106   0.25536
   8        3PY         0.03096   0.00019  -0.06566  -0.09130   0.39348
   9        3PZ        -0.20347  -0.00010   0.05790   0.01834   0.83023
  10        4XX         0.01755  -0.00012   0.11560   0.07480  -0.19206
  11        4YY        -0.04599   0.00006   0.03157   0.00890  -0.10769
  12        4ZZ         0.02844   0.00006  -0.14717  -0.08370   0.39541
  13        4XY        -0.56551  -0.00011   0.26653  -0.07580   0.10921
  14        4XZ        -0.05153   0.00008   0.03446  -0.17857   0.23044
  15        4YZ         0.18331  -0.00010   0.05299   0.23011   0.35509
  16 2   H  1S         -0.47334   0.00004   0.09596  -0.18741   0.00479
  17        2S         -0.03221   0.00000  -0.04167   0.08139  -0.11189
  18        3PX        -0.36165  -0.19077  -0.08198   0.09595  -0.01805
  19        3PY        -0.06683  -0.47082  -0.16140   0.15689  -0.15030
  20        3PZ         0.00090   0.28183  -0.16175   0.41070  -0.26332
  21 3   H  1S         -0.00165  -0.00018   0.11433   0.17681   0.00479
  22        2S         -0.00011  -0.00001  -0.04965  -0.07679  -0.11189
  23        3PX        -0.32734   0.55097  -0.14534  -0.06919  -0.09068
  24        3PY        -0.01669   0.02606  -0.10959  -0.16209  -0.06067
  25        3PZ         0.10810  -0.18187  -0.21727  -0.38735  -0.28346
  26 4   H  1S          0.47499   0.00014  -0.21028   0.01061   0.00479
  27        2S          0.03232   0.00001   0.09132  -0.00461  -0.11190
  28        3PX        -0.29504  -0.36024   0.14717   0.04787  -0.12916
  29        3PY         0.03389   0.44445   0.21054  -0.07886  -0.15559
  30        3PZ         0.21720  -0.09980   0.43231  -0.00648  -0.22666
  31 5   H  1S          0.00000   0.00000  -0.00001   0.00000  -0.63071
  32        2S          0.00001   0.00000   0.00000   0.00000  -1.49987
  33        3PX        -0.07430   0.00000   0.37709  -0.35113   0.06672
  34        3PY        -0.00375  -0.00002   0.28444   0.39547   0.10280
  35        3PZ         0.02463   0.00001  -0.25080  -0.07943   0.21690
  36 6   H  1S          0.00000   0.00000   0.00000   0.00000   0.02381
  37        2S          0.00000   0.00000   0.00000   0.00000   0.57190
  38        3PX        -0.24154  -0.00001  -0.37602   0.35013  -0.19727
  39        3PY        -0.01218  -0.00008  -0.28363  -0.39435  -0.30397
  40        3PZ         0.08007   0.00004   0.25009   0.07921  -0.64132
                          31        32        33        34        35
                        (A)--V    (A)--V    (A)--V    (A)--V    (A)--V
     EIGENVALUES --     2.86791   2.96921   2.96921   3.20622   3.20622
   1 1   C  1S         -0.00219   0.00000   0.00000   0.00000   0.00000
   2        2S          0.14852   0.00000   0.00000   0.00000   0.00000
   3        2PX        -0.02375  -0.12775  -0.09613  -0.12086   0.00854
   4        2PY        -0.03660   0.10536  -0.10837   0.00638  -0.11437
   5        2PZ        -0.07722  -0.01065   0.08093   0.03415   0.05158
   6        3S         -0.10121   0.00000  -0.00003   0.00001   0.00001
   7        3PX        -0.13289  -0.47527  -0.35764  -0.14277   0.01008
   8        3PY        -0.20478   0.39200  -0.40319   0.00754  -0.13510
   9        3PZ        -0.43205  -0.03961   0.30108   0.04034   0.06094
  10        4XX        -0.20026   0.13081  -0.19907   0.49152  -0.36701
  11        4YY        -0.11839  -0.03962  -0.01144  -0.09578   0.80575
  12        4ZZ         0.36981  -0.09119   0.21051  -0.39574  -0.43874
  13        4XY         0.10598  -0.20118  -0.40218  -0.11912   0.01997
  14        4XZ         0.22362  -0.25502   0.03263   0.68012   0.06451
  15        4YZ         0.34458   0.33423  -0.12786   0.04691   0.30827
  16 2   H  1S          0.06320  -0.04851  -0.01486   0.01747  -0.00777
  17        2S         -0.12832   0.46658   0.14293   0.14257  -0.06339
  18        3PX         0.37216  -0.07133   0.18197  -0.25290   0.31347
  19        3PY         0.11358   0.02649   0.51110   0.11740   0.44387
  20        3PZ         0.44168   0.35424  -0.19257  -0.44346  -0.09979
  21 3   H  1S          0.06320   0.03713  -0.03458  -0.00201   0.01901
  22        2S         -0.12832  -0.35706   0.33261  -0.01639   0.15516
  23        3PX         0.09945   0.30869   0.48178   0.53545  -0.01808
  24        3PY         0.45010  -0.00382   0.04012   0.06960  -0.41876
  25        3PZ         0.36607  -0.35704   0.07863  -0.14415  -0.30269
  26 4   H  1S          0.06320   0.01139   0.04944  -0.01546  -0.01125
  27        2S         -0.12832  -0.10951  -0.47553  -0.12618  -0.09178
  28        3PX        -0.04495   0.32170  -0.24306   0.14237  -0.32540
  29        3PY         0.09376  -0.48378  -0.07695  -0.20944   0.37700
  30        3PZ         0.57937   0.04940  -0.24024   0.46754   0.22113
  31 5   H  1S         -0.17619   0.00000   0.00001   0.00000   0.00000
  32        2S          0.38738   0.00000   0.00003  -0.00001  -0.00001
  33        3PX        -0.00048   0.49630   0.37345  -0.37075   0.02618
  34        3PY        -0.00073  -0.40934   0.42102   0.01958  -0.35084
  35        3PZ        -0.00155   0.04136  -0.31442   0.10476   0.15823
  36 6   H  1S         -0.02979   0.00000   0.00000   0.00000   0.00000
  37        2S          0.00277   0.00000  -0.00001   0.00000   0.00000
  38        3PX        -0.04799  -0.15717  -0.11826   0.12241  -0.00865
  39        3PY        -0.07395   0.12963  -0.13332  -0.00647   0.11584
  40        3PZ        -0.15602  -0.01310   0.09958  -0.03459  -0.05225
                          36        37        38        39        40
                        (A)--V    (A)--V    (A)--V    (A)--V    (A)--V
     EIGENVALUES --     3.56054   3.79859   3.79859   4.05455   4.90969
   1 1   C  1S         -0.12823   0.00000   0.00000  -0.07916  -0.47946
   2        2S          1.03737   0.00000   0.00000   0.43355   2.73093
   3        2PX        -0.06524  -0.29306  -0.89197   0.16354  -0.01151
   4        2PY        -0.10053   0.87147  -0.16869   0.25201  -0.01774
   5        2PZ        -0.21212  -0.32289   0.35430   0.53171  -0.03744
   6        3S          0.77609   0.00000   0.00000   0.11420   2.51089
   7        3PX        -0.06440  -0.14953  -0.45510   0.07098   0.06858
   8        3PY        -0.09924   0.44464  -0.08607   0.10937   0.10567
   9        3PZ        -0.20938  -0.16475   0.18077   0.23077   0.22295
  10        4XX         0.09739  -0.77130   0.03548  -0.61460  -2.05468
  11        4YY         0.02015   0.44533   0.02977  -0.48382  -2.04742
  12        4ZZ        -0.44047   0.32597  -0.06525   0.29604  -2.00417
  13        4XY        -0.10000  -0.13681   1.15089   0.16930   0.00939
  14        4XZ        -0.21099   0.51352  -0.02625   0.35722   0.01981
  15        4YZ        -0.32512  -0.72123  -0.26971   0.55044   0.03053
  16 2   H  1S         -0.33916   0.50253   0.64048   0.24232   0.23937
  17        2S         -0.33101   0.29056   0.37033   0.04639  -0.38712
  18        3PX         0.56793  -0.53384  -0.73562  -0.22887  -0.24523
  19        3PY        -0.37470   0.42879   0.41022   0.13943   0.15251
  20        3PZ        -0.24148   0.18658   0.31938   0.07799   0.08877
  21 3   H  1S         -0.33916  -0.80593   0.11496   0.24232   0.23937
  22        2S         -0.33101  -0.46599   0.06647   0.04639  -0.38712
  23        3PX        -0.17321  -0.28119  -0.05936   0.06294   0.06929
  24        3PY         0.53987   0.85723  -0.12701  -0.22067  -0.23560
  25        3PZ        -0.44699  -0.68162   0.13006   0.15890   0.17598
  26 4   H  1S         -0.33916   0.30341  -0.75544   0.24232   0.23937
  27        2S         -0.33101   0.17543  -0.43680   0.04639  -0.38712
  28        3PX        -0.56566   0.27341  -0.85351   0.21747   0.23583
  29        3PY        -0.42857   0.32457  -0.59497   0.16064   0.17537
  30        3PZ         0.13272  -0.10172   0.20536  -0.06935  -0.07003
  31 5   H  1S          0.12088   0.00000   0.00000  -0.31476   0.17348
  32        2S          0.19466   0.00000   0.00000  -0.14811  -0.92338
  33        3PX         0.06808   0.01462   0.04449   0.33721  -0.11294
  34        3PY         0.10490  -0.04347   0.00841   0.51961  -0.17403
  35        3PZ         0.22132   0.01610  -0.01767   1.09631  -0.36719
  36 6   H  1S         -0.07099   0.00000   0.00000  -0.19305   0.10461
  37        2S         -0.11454   0.00000   0.00000  -0.08716   0.24982
  38        3PX         0.07818   0.00304   0.00925   0.16751  -0.05321
  39        3PY         0.12046  -0.00904   0.00175   0.25811  -0.08199
  40        3PZ         0.25416   0.00335  -0.00367   0.54457  -0.17299
     Beta Molecular Orbital Coefficients.
                           1         2         3         4         5
                        (A)--O    (A)--O    (A)--O    (A)--O    (A)--O
     EIGENVALUES --   -11.21638  -0.92973  -0.55826  -0.55826  -0.52862
   1 1   C  1S          0.99594  -0.19039   0.00000   0.00000   0.01770
   2        2S          0.02720   0.35295   0.00000   0.00000  -0.04172
   3        2PX         0.00000  -0.00617  -0.26511   0.31298   0.08797
   4        2PY         0.00000  -0.00951  -0.26199  -0.28591   0.13556
   5        2PZ         0.00000  -0.02006   0.20571   0.03924   0.28603
   6        3S         -0.01468   0.33333   0.00000   0.00000  -0.09921
   7        3PX        -0.00032  -0.00016  -0.12916   0.15248   0.03698
   8        3PY        -0.00049  -0.00025  -0.12764  -0.13929   0.05698
   9        3PZ        -0.00103  -0.00053   0.10022   0.01912   0.12022
  10        4XX        -0.00121   0.00262   0.01143   0.01396  -0.00871
  11        4YY        -0.00129   0.00146  -0.00330  -0.00762  -0.00455
  12        4ZZ        -0.00174  -0.00542  -0.00813  -0.00633   0.02031
  13        4XY        -0.00010  -0.00149   0.02669  -0.01205   0.00540
  14        4XZ        -0.00021  -0.00315  -0.00539  -0.01261   0.01138
  15        4YZ        -0.00032  -0.00486   0.00478   0.02008   0.01754
  16 2   H  1S         -0.00003   0.14458  -0.09810   0.26468  -0.08623
  17        2S          0.00241   0.05140  -0.08353   0.22538  -0.07987
  18        3PX         0.00019  -0.01066   0.00096  -0.00880   0.00627
  19        3PY        -0.00011   0.00673  -0.00738   0.00459  -0.00037
  20        3PZ        -0.00005   0.00402   0.00102   0.00641   0.00363
  21 3   H  1S         -0.00003   0.14458  -0.18017  -0.21730  -0.08623
  22        2S          0.00241   0.05140  -0.15342  -0.18503  -0.07987
  23        3PX        -0.00005   0.00307  -0.00693   0.00142   0.00032
  24        3PY         0.00019  -0.01021   0.00478   0.00623   0.00697
  25        3PZ        -0.00012   0.00783  -0.00414  -0.00821   0.00198
  26 4   H  1S         -0.00003   0.14458   0.27827  -0.04738  -0.08623
  27        2S          0.00241   0.05140   0.23695  -0.04035  -0.07987
  28        3PX        -0.00018   0.01034   0.01019   0.00240  -0.00282
  29        3PY        -0.00013   0.00773   0.00678  -0.00626  -0.00080
  30        3PZ         0.00007  -0.00291  -0.00017   0.00117   0.00663
  31 5   H  1S         -0.00005   0.12584   0.00000   0.00000   0.31755
  32        2S          0.00459   0.05742   0.00000   0.00000   0.42469
  33        3PX         0.00008  -0.00229  -0.00397   0.00468  -0.00007
  34        3PY         0.00012  -0.00353  -0.00392  -0.00428  -0.00010
  35        3PZ         0.00025  -0.00745   0.00308   0.00059  -0.00021
  36 6   H  1S         -0.00017   0.02120   0.00000   0.00000   0.09484
  37        2S         -0.00111   0.00746   0.00000   0.00000   0.04097
  38        3PX         0.00005  -0.00097  -0.00060   0.00071  -0.00291
  39        3PY         0.00007  -0.00149  -0.00059  -0.00065  -0.00448
  40        3PZ         0.00015  -0.00315   0.00046   0.00009  -0.00945
                           6         7         8         9        10
                        (A)--V    (A)--V    (A)--V    (A)--V    (A)--V
     EIGENVALUES --     0.10147   0.26869   0.32544   0.32544   0.42086
   1 1   C  1S          0.05798  -0.14172   0.00000   0.00000   0.06471
   2        2S         -0.08754   0.08583   0.00000   0.00000  -0.01402
   3        2PX        -0.07074  -0.04036  -0.18994   0.21462  -0.03603
   4        2PY        -0.10901  -0.06219   0.22390   0.15259  -0.05552
   5        2PZ        -0.23000  -0.13121  -0.04770  -0.13833  -0.11714
   6        3S         -0.49686   2.59533   0.00000   0.00000  -1.43211
   7        3PX        -0.09374  -0.11915  -0.99108   1.11990  -0.44711
   8        3PY        -0.14445  -0.18361   1.16833   0.79623  -0.68895
   9        3PZ        -0.30478  -0.38740  -0.24890  -0.72183  -1.45362
  10        4XX        -0.00130  -0.01112   0.00533   0.00133  -0.00786
  11        4YY        -0.00101  -0.01098  -0.00418  -0.00195  -0.00298
  12        4ZZ         0.00070  -0.01015  -0.00115   0.00062   0.02611
  13        4XY         0.00037   0.00018  -0.00200   0.00613   0.00632
  14        4XZ         0.00079   0.00038  -0.00144  -0.00282   0.01333
  15        4YZ         0.00121   0.00059   0.00348  -0.00043   0.02053
  16 2   H  1S          0.01001  -0.00730   0.05668  -0.03085  -0.07425
  17        2S          0.14676  -1.19847   1.70791  -0.92972  -0.12134
  18        3PX        -0.00389  -0.00077  -0.00524   0.00599  -0.00162
  19        3PY        -0.00210  -0.00251   0.00639   0.00426  -0.00241
  20        3PZ        -0.00614  -0.00470  -0.00114  -0.00401  -0.00512
  21 3   H  1S          0.01001  -0.00730  -0.05506  -0.03366  -0.07424
  22        2S          0.14676  -1.19847  -1.65912  -1.01423  -0.12134
  23        3PX        -0.00158  -0.00155  -0.00541   0.00602  -0.00157
  24        3PY        -0.00495  -0.00154   0.00617   0.00421  -0.00248
  25        3PZ        -0.00550  -0.00492  -0.00153  -0.00401  -0.00510
  26 4   H  1S          0.01001  -0.00730  -0.00162   0.06451  -0.07425
  27        2S          0.14676  -1.19846  -0.04879   1.94396  -0.12133
  28        3PX        -0.00036  -0.00197  -0.00536   0.00608  -0.00154
  29        3PY        -0.00193  -0.00256   0.00631   0.00439  -0.00240
  30        3PZ        -0.00731  -0.00431  -0.00135  -0.00363  -0.00515
  31 5   H  1S         -0.01988   0.03503   0.00000   0.00000   0.22650
  32        2S          0.09154  -0.32299   0.00000  -0.00001   3.11627
  33        3PX         0.00453   0.00084  -0.00375   0.00423  -0.00126
  34        3PY         0.00698   0.00130   0.00442   0.00301  -0.00193
  35        3PZ         0.01473   0.00274  -0.00094  -0.00273  -0.00408
  36 6   H  1S          0.20006   0.04364   0.00000   0.00000   0.04757
  37        2S          0.78167   0.24136   0.00000   0.00000  -1.52974
  38        3PX        -0.00229  -0.00155  -0.00346   0.00391  -0.00069
  39        3PY        -0.00352  -0.00239   0.00408   0.00278  -0.00107
  40        3PZ        -0.00743  -0.00505  -0.00087  -0.00252  -0.00225
                          11        12        13        14        15
                        (A)--V    (A)--V    (A)--V    (A)--V    (A)--V
     EIGENVALUES --     0.71955   0.71955   0.79476   1.04723   1.14672
   1 1   C  1S          0.00000   0.00000   0.02408   0.05702   0.00000
   2        2S          0.00000   0.00000  -0.01111   0.10572   0.00000
   3        2PX        -0.64388   0.23927  -0.24355   0.02544   0.53152
   4        2PY        -0.14776  -0.63237  -0.37529   0.03921  -0.60246
   5        2PZ         0.26808   0.22612  -0.79182   0.08273   0.12205
   6        3S          0.00000   0.00000  -0.44677  -0.54458   0.00000
   7        3PX         1.27319  -0.47312   0.26797   0.05246  -0.85077
   8        3PY         0.29218   1.25044   0.41291   0.08084   0.96433
   9        3PZ        -0.53010  -0.44713   0.87118   0.17055  -0.19537
  10        4XX         0.00711   0.04662   0.01842   0.06350  -0.15295
  11        4YY         0.00188  -0.02304   0.01108   0.05890   0.08897
  12        4ZZ        -0.00899  -0.02358  -0.03270   0.03143   0.06398
  13        4XY         0.07487   0.00648  -0.00950  -0.00596   0.08149
  14        4XZ         0.00219  -0.03457  -0.02005  -0.01258   0.11097
  15        4YZ        -0.01483   0.05010  -0.03090  -0.01938  -0.18174
  16 2   H  1S         -0.38608   0.32759   0.17152   0.32756  -0.67725
  17        2S         -0.12664   0.10745   0.01760   0.05652   1.41728
  18        3PX         0.03101  -0.01780  -0.00874   0.03164  -0.09837
  19        3PY        -0.00419   0.02454   0.00597  -0.01621   0.04036
  20        3PZ        -0.01234  -0.00209   0.00406  -0.00566   0.06273
  21 3   H  1S         -0.09067  -0.49816   0.17152   0.32756   0.64154
  22        2S         -0.02974  -0.16340   0.01760   0.05651  -1.34256
  23        3PX         0.01695  -0.01150   0.00279  -0.00688   0.00442
  24        3PY         0.00706   0.03381  -0.00825   0.03133   0.07969
  25        3PZ        -0.00968  -0.01867   0.00726  -0.01634  -0.08801
  26 4   H  1S          0.47674   0.17056   0.17152   0.32755   0.03570
  27        2S          0.15638   0.05595   0.01760   0.05652  -0.07472
  28        3PX         0.03358  -0.00100   0.00889  -0.02728   0.03560
  29        3PY         0.01584   0.02172   0.00681  -0.01901  -0.05390
  30        3PZ        -0.01192  -0.00787  -0.00176   0.01379   0.01188
  31 5   H  1S          0.00001   0.00000  -0.35716   0.44865   0.00000
  32        2S          0.00000   0.00000   0.64229  -0.42300   0.00000
  33        3PX         0.02248  -0.00835   0.02201   0.03147   0.03090
  34        3PY         0.00516   0.02208   0.03391   0.04850  -0.03503
  35        3PZ        -0.00936  -0.00789   0.07155   0.10232   0.00710
  36 6   H  1S          0.00000   0.00000   0.03574   1.02889   0.00000
  37        2S          0.00000   0.00000  -0.52753  -0.75226   0.00000
  38        3PX         0.01964  -0.00730  -0.00396  -0.01698  -0.00645
  39        3PY         0.00451   0.01929  -0.00610  -0.02616   0.00731
  40        3PZ        -0.00818  -0.00690  -0.01287  -0.05520  -0.00148
                          16        17        18        19        20
                        (A)--V    (A)--V    (A)--V    (A)--V    (A)--V
     EIGENVALUES --     1.14672   1.18604   1.21223   1.45198   1.63057
   1 1   C  1S          0.00000   0.01352  -0.06154  -0.12395   0.00000
   2        2S         -0.00001  -0.98752   0.81910  -1.89821   0.00000
   3        2PX        -0.57489   0.14826   0.05534  -0.07533  -0.01261
   4        2PY        -0.43007   0.22846   0.08527  -0.11608   0.02401
   5        2PZ         0.38066   0.48202   0.17992  -0.24492  -0.00750
   6        3S          0.00001   1.89689  -1.76647   5.56529  -0.00001
   7        3PX         0.92020  -0.32605  -0.14319   0.30855   0.01730
   8        3PY         0.68839  -0.50242  -0.22064   0.47544  -0.03295
   9        3PZ        -0.60931  -1.06006  -0.46555   1.00315   0.01029
  10        4XX        -0.08420   0.04777   0.02103  -0.13831  -0.38467
  11        4YY         0.03164   0.01483   0.01032  -0.12462   0.58062
  12        4ZZ         0.05256  -0.18158  -0.05351  -0.04303  -0.19595
  13        4XY        -0.25644  -0.04264  -0.01386   0.01771   0.04888
  14        4XZ         0.04841  -0.08997  -0.02924   0.03738  -0.17976
  15        4YZ        -0.01552  -0.13863  -0.04506   0.05760   0.22578
  16 2   H  1S          0.34978   0.35534  -0.34860  -0.42660   0.01527
  17        2S         -0.73200  -1.04907   0.34002  -0.63705  -0.02350
  18        3PX         0.02661   0.07684  -0.03594  -0.00322  -0.14129
  19        3PY        -0.08054  -0.02244   0.04085   0.00415  -0.17825
  20        3PZ         0.00333   0.01453   0.04391   0.00475  -0.09039
  21 3   H  1S          0.41162   0.35534  -0.34860  -0.42660  -0.01969
  22        2S         -0.86141  -1.04906   0.34001  -0.63705   0.03031
  23        3PX        -0.07093  -0.00668   0.02112   0.00218   0.11826
  24        3PY         0.04762   0.08062  -0.02957  -0.00251   0.15870
  25        3PZ        -0.03212  -0.00863   0.05973   0.00625   0.17002
  26 4   H  1S         -0.76140   0.35534  -0.34860  -0.42660   0.00442
  27        2S          1.59339  -1.04907   0.34001  -0.63706  -0.00681
  28        3PX         0.10743  -0.05090   0.05134   0.00504   0.12736
  29        3PY         0.08013  -0.02851   0.04500   0.00454  -0.17918
  30        3PZ        -0.01301   0.05670   0.01510   0.00203  -0.01752
  31 5   H  1S         -0.00001  -0.73159  -0.85352   0.10077   0.00000
  32        2S          0.00001   1.87551   2.00366  -2.95907   0.00001
  33        3PX        -0.03343  -0.00966  -0.00795   0.02712  -0.12777
  34        3PY        -0.02501  -0.01488  -0.01225   0.04179   0.24340
  35        3PZ         0.02213  -0.03139  -0.02585   0.08816  -0.07606
  36 6   H  1S          0.00000  -0.02715   0.66144   0.45581   0.00000
  37        2S          0.00000  -0.54436  -1.12128   0.48971   0.00000
  38        3PX         0.00698   0.01061   0.01951   0.00776  -0.03188
  39        3PY         0.00522   0.01634   0.03007   0.01195   0.06074
  40        3PZ        -0.00462   0.03448   0.06343   0.02521  -0.01898
                          21        22        23        24        25
                        (A)--V    (A)--V    (A)--V    (A)--V    (A)--V
     EIGENVALUES --     1.63057   2.18114   2.18831   2.18831   2.32665
   1 1   C  1S          0.00000   0.04364   0.00001   0.00000   0.00000
   2        2S          0.00001   0.04042   0.00001   0.00001   0.00000
   3        2PX         0.02400  -0.05113   0.00970   0.04063   0.00000
   4        2PY         0.00897  -0.07878   0.03694  -0.01395   0.00000
   5        2PZ        -0.01163  -0.16622  -0.02052  -0.00590   0.00000
   6        3S         -0.00003  -0.76253  -0.00012  -0.00007   0.00000
   7        3PX        -0.03294   0.02693  -0.02527  -0.10575   0.00000
   8        3PY        -0.01231   0.04148  -0.09617   0.03629  -0.00002
   9        3PZ         0.01595   0.08749   0.05336   0.01533   0.00001
  10        4XX         0.23712  -0.16656  -0.05213  -0.04206   0.00001
  11        4YY         0.17915  -0.09149  -0.06778   0.01887   0.00000
  12        4ZZ        -0.41626   0.35614   0.11992   0.02319   0.00000
  13        4XY        -0.04074   0.09721  -0.08578  -0.09325   0.00001
  14        4XZ         0.49343   0.20506   0.01498  -0.12588  -0.00001
  15        4YZ         0.12303   0.31598  -0.10476   0.08187   0.00001
  16 2   H  1S         -0.01392   0.24282   0.00885  -0.07749   0.00000
  17        2S          0.02143  -0.00876  -0.01271   0.11175   0.00000
  18        3PX         0.03188   0.00538  -0.01674  -0.21959  -0.19075
  19        3PY        -0.07674  -0.08868  -0.09168  -0.09933  -0.47071
  20        3PZ         0.22568  -0.14454   0.09406  -0.28517   0.28177
  21 3   H  1S         -0.00626   0.24282  -0.07150   0.03114   0.00001
  22        2S          0.00964  -0.00876   0.10313  -0.04486   0.00000
  23        3PX        -0.17958  -0.05212  -0.11291  -0.08148   0.55099
  24        3PY         0.04013  -0.01772  -0.24763   0.10151   0.02619
  25        3PZ         0.12574  -0.16048  -0.21688   0.13743  -0.18189
  26 4   H  1S          0.02018   0.24280   0.06274   0.04641  -0.00001
  27        2S         -0.03106  -0.00874  -0.09042  -0.06688   0.00000
  28        3PX        -0.05096  -0.08259   0.04182  -0.06645  -0.36024
  29        3PY        -0.03759  -0.09289   0.00505   0.12391   0.44454
  30        3PZ        -0.25515  -0.11558   0.30819   0.20097  -0.09989
  31 5   H  1S          0.00000  -0.29667  -0.00004  -0.00002   0.00000
  32        2S          0.00003   0.90081   0.00013   0.00008   0.00000
  33        3PX         0.24330  -0.10664   0.11656   0.48785   0.00000
  34        3PY         0.09087  -0.16429   0.44366  -0.16742   0.00000
  35        3PZ        -0.11791  -0.34651  -0.24619  -0.07074   0.00000
  36 6   H  1S          0.00000   0.26205   0.00003   0.00002   0.00000
  37        2S         -0.00001  -0.52589  -0.00007  -0.00004   0.00000
  38        3PX         0.06071   0.12508   0.14218   0.59498   0.00000
  39        3PY         0.02268   0.19278   0.54112  -0.20415   0.00001
  40        3PZ        -0.02942   0.40689  -0.30014  -0.08621   0.00000
                          26        27        28        29        30
                        (A)--V    (A)--V    (A)--V    (A)--V    (A)--V
     EIGENVALUES --     2.33878   2.33878   2.51105   2.51105   2.79652
   1 1   C  1S          0.00000   0.00000   0.00000   0.00000   0.05973
   2        2S          0.00000   0.00000   0.00000   0.00000   0.19298
   3        2PX         0.01549  -0.10372  -0.03333   0.03119  -0.05163
   4        2PY        -0.09912  -0.00218  -0.02528  -0.03498  -0.07956
   5        2PZ         0.04221   0.03293   0.02224   0.00698  -0.16786
   6        3S          0.00000   0.00000  -0.00001   0.00000  -1.50106
   7        3PX        -0.09674   0.64782   0.02460  -0.02302  -0.26860
   8        3PY         0.61911   0.01362   0.01866   0.02582  -0.41388
   9        3PZ        -0.26367  -0.20571  -0.01642  -0.00516  -0.87328
  10        4XX        -0.37628   0.03066  -0.10997  -0.04117   0.14155
  11        4YY         0.19054  -0.05209  -0.04681  -0.03727   0.07680
  12        4ZZ         0.18574   0.02144   0.15678   0.07844  -0.30935
  13        4XY        -0.16925  -0.56394  -0.23475   0.06448  -0.08382
  14        4XZ         0.26073  -0.05748  -0.05479   0.17597  -0.17687
  15        4YZ        -0.35218   0.19537  -0.05776  -0.21465  -0.27254
  16 2   H  1S          0.26250  -0.48501  -0.07501   0.14739   0.01684
  17        2S          0.02348  -0.04338   0.05268  -0.10351   0.08349
  18        3PX         0.05911  -0.33568   0.08942  -0.09521   0.07926
  19        3PY        -0.28705  -0.02845   0.16836  -0.13219   0.17015
  20        3PZ         0.15548   0.04725   0.13759  -0.38922   0.33793
  21 3   H  1S         -0.55128   0.01518  -0.09014  -0.13866   0.01684
  22        2S         -0.04931   0.00136   0.06330   0.09738   0.08349
  23        3PX         0.02973  -0.31227   0.15706   0.04814   0.10773
  24        3PY        -0.33494  -0.00558   0.10966   0.15950   0.13502
  25        3PZ         0.07062   0.10087   0.19397   0.36225   0.34582
  26 4   H  1S          0.28879   0.46984   0.16515  -0.00873   0.01684
  27        2S          0.02583   0.04202  -0.11598   0.00613   0.08350
  28        3PX         0.05308  -0.30236  -0.12971  -0.06218   0.12282
  29        3PY        -0.28619   0.01405  -0.18945   0.09521   0.17223
  30        3PZ         0.16069   0.15365  -0.40944   0.00250   0.32356
  31 5   H  1S          0.00000   0.00000   0.00001   0.00000   0.56910
  32        2S          0.00000   0.00000   0.00000   0.00000   1.53176
  33        3PX         0.02817  -0.18865  -0.30362   0.28409  -0.07536
  34        3PY        -0.18029  -0.00397  -0.23030  -0.31858  -0.11612
  35        3PZ         0.07678   0.05991   0.20254   0.06361  -0.24500
  36 6   H  1S          0.00000   0.00000   0.00000   0.00000  -0.01355
  37        2S          0.00000   0.00000   0.00000   0.00000  -0.55936
  38        3PX         0.03922  -0.26260   0.47163  -0.44129   0.18745
  39        3PY        -0.25096  -0.00552   0.35774   0.49488   0.28884
  40        3PZ         0.10689   0.08339  -0.31463  -0.09882   0.60940
                          31        32        33        34        35
                        (A)--V    (A)--V    (A)--V    (A)--V    (A)--V
     EIGENVALUES --     2.87890   2.97283   2.97283   3.21260   3.21261
   1 1   C  1S         -0.01445   0.00000   0.00000   0.00000   0.00000
   2        2S          0.13121   0.00000   0.00000   0.00000   0.00000
   3        2PX        -0.01454  -0.13573  -0.10025  -0.11597   0.00727
   4        2PY        -0.02241   0.11018  -0.11537   0.00699  -0.10963
   5        2PZ        -0.04727  -0.01048   0.08551   0.03236   0.04973
   6        3S          0.16355   0.00000  -0.00004   0.00001   0.00001
   7        3PX        -0.08663  -0.47239  -0.34893  -0.14008   0.00878
   8        3PY        -0.13349   0.38349  -0.40152   0.00844  -0.13242
   9        3PZ        -0.28164  -0.03646   0.29761   0.03909   0.06007
  10        4XX        -0.22919   0.13729  -0.19961   0.49689  -0.36000
  11        4YY        -0.13386  -0.04779  -0.00362  -0.10184   0.80774
  12        4ZZ         0.43459  -0.08950   0.20322  -0.39505  -0.44774
  13        4XY         0.12340  -0.20608  -0.40107  -0.11183   0.02243
  14        4XZ         0.26038  -0.24818   0.04154   0.68549   0.06654
  15        4YZ         0.40122   0.33072  -0.12719   0.04138   0.31581
  16 2   H  1S          0.05789  -0.04840  -0.01436   0.01930  -0.00840
[...]
                                                                 X                                                                   
                                                                 X                                                                   
                                                                 X                                                                   
 
 ***** Axes restored to original set *****
 -------------------------------------------------------------------
 Center     Atomic                   Forces (Hartrees/Bohr)
 Number     Number              X              Y              Z
 -------------------------------------------------------------------
    1          6           0.031802552   -0.000000233    0.000000113
    2          1          -0.004315622    0.000248555   -0.001479543
    3          1          -0.004315590    0.001157148    0.000955123
    4          1          -0.004315636   -0.001405345    0.000524321
    5          1          -0.036955593   -0.000000112   -0.000000019
    6          1           0.018099888   -0.000000013    0.000000004
 -------------------------------------------------------------------
 Cartesian Forces:  Max     0.036955593 RMS     0.012399260
 ------------------------------------------------------------------------
           Internal Coordinate Forces (Hartree/Bohr or radian)
 Cent Atom N1     Length/X     N2     Alpha/Y      N3      Beta/Z       J
 ------------------------------------------------------------------------
   1  C         0.031803(   1)      0.000000(   7)      0.000000(  13)
   2  H        -0.004316(   2)      0.000249(   8)     -0.001480(  14)
   3  H        -0.004316(   3)      0.001157(   9)      0.000955(  15)
   4  H        -0.004316(   4)     -0.001405(  10)      0.000524(  16)
   5  H        -0.036956(   5)      0.000000(  11)      0.000000(  17)
   6  H         0.018100(   6)      0.000000(  12)      0.000000(  18)
 ------------------------------------------------------------------------
 Internal  Forces:  Max     0.036955593 RMS     0.012399260
 Force constants in Cartesian coordinates: 
                1             2             3             4             5
      1  0.338868D+00
      2 -0.264152D-05  0.629504D+00
      3  0.000000D+00  0.000000D+00  0.629502D+00
      4 -0.610434D-01 -0.137687D-01  0.819471D-01  0.655999D-01
      5 -0.130918D-01 -0.613436D-01  0.456127D-01  0.144742D-01  0.571546D-01
      6  0.779186D-01  0.456127D-01 -0.325152D+00 -0.861463D-01 -0.495117D-01
      7 -0.610431D-01 -0.640835D-01 -0.528971D-01  0.319897D-02  0.983643D-02
      8 -0.609332D-01 -0.219699D+00 -0.137038D+00  0.309084D-02  0.627948D-02
      9 -0.502966D-01 -0.137038D+00 -0.166796D+00 -0.114508D-01 -0.233016D-01
     10 -0.610449D-01  0.778554D-01 -0.290507D-01  0.319913D-02 -0.114622D-01
     11  0.740282D-01 -0.298701D+00  0.914262D-01  0.821172D-03 -0.112798D-02
     12 -0.276226D-01  0.914261D-01 -0.877940D-01 -0.118325D-01  0.275781D-01
     13 -0.826059D-01  0.000000D+00  0.000000D+00 -0.147762D-01  0.369845D-03
     14  0.000000D+00 -0.540515D-01  0.000000D+00 -0.472941D-02 -0.776024D-03
     15  0.000000D+00  0.000000D+00 -0.540515D-01  0.281479D-01 -0.311025D-03
     16 -0.731307D-01  0.000000D+00  0.000000D+00  0.382162D-02 -0.126585D-03
     17  0.000000D+00  0.429097D-02  0.000000D+00  0.111791D-03 -0.186453D-03
     18  0.000000D+00  0.000000D+00  0.429096D-02 -0.665435D-03 -0.664248D-04
                6             7             8             9            10
      6  0.343513D+00
      7  0.662720D-02  0.655996D-01
      8  0.615723D-02  0.673674D-01  0.229046D+00
      9 -0.134953D-01  0.556076D-01  0.148752D+00  0.171621D+00
     10  0.304871D-02  0.319910D-02 -0.106575D-01  0.520496D-02  0.656014D-01
     11 -0.188056D-02  0.837151D-02 -0.159753D-01  0.104528D-01 -0.818449D-01
     12 -0.608796D-02  0.840237D-02 -0.190059D-01  0.875942D-02  0.305393D-01
     13 -0.220175D-02 -0.147761D-01  0.172172D-02  0.142127D-02 -0.147763D-01
     14 -0.311219D-03 -0.220122D-01  0.304343D-03  0.935073D-03  0.267414D-01
     15  0.102398D-02 -0.181697D-01  0.934913D-03 -0.564456D-04 -0.997819D-02
     16  0.753519D-03  0.382162D-02 -0.589241D-03 -0.486404D-03  0.382157D-02
     17 -0.664226D-04  0.520364D-03  0.441442D-04  0.199552D-03 -0.632228D-03
     18  0.197697D-03  0.429544D-03  0.199554D-03 -0.328972D-04  0.235904D-03
               11            12            13            14            15
     11  0.314801D+00
     12 -0.992413D-01  0.858660D-01
     13 -0.209191D-02  0.780553D-03  0.878657D-01
     14  0.843730D-03 -0.623856D-03  0.000000D+00  0.530644D-01
     15 -0.623890D-03 -0.595506D-03  0.000000D+00  0.000000D+00  0.530644D-01
     16  0.715921D-03 -0.267133D-03  0.390688D-01  0.000000D+00  0.000000D+00
     17  0.159170D-03 -0.133130D-03  0.000000D+00  0.615076D-03  0.000000D+00
     18 -0.133130D-03 -0.147939D-03  0.000000D+00  0.000000D+00  0.615082D-03
               16            17            18
     16  0.225970D-01
     17  0.000000D+00 -0.492290D-02
     18  0.000000D+00  0.000000D+00 -0.492290D-02
 Force constants in internal coordinates: 
                1             2             3             4             5
      1  0.338868D+00
      2 -0.610434D-01  0.655999D-01
      3 -0.610431D-01  0.319897D-02  0.655996D-01
      4 -0.610449D-01  0.319913D-02  0.319910D-02  0.656014D-01
      5 -0.826059D-01 -0.147762D-01 -0.147761D-01 -0.147763D-01  0.878657D-01
      6 -0.731307D-01  0.382162D-02  0.382162D-02  0.382157D-02  0.390688D-01
      7 -0.264152D-05 -0.137687D-01 -0.640835D-01  0.778554D-01  0.000000D+00
      8 -0.130918D-01  0.144742D-01  0.983643D-02 -0.114622D-01  0.369845D-03
      9 -0.609332D-01  0.309084D-02  0.673674D-01 -0.106575D-01  0.172172D-02
     10  0.740282D-01  0.821172D-03  0.837151D-02 -0.818449D-01 -0.209191D-02
     11  0.000000D+00 -0.472941D-02 -0.220122D-01  0.267414D-01  0.000000D+00
     12  0.000000D+00  0.111791D-03  0.520364D-03 -0.632228D-03  0.000000D+00
     13  0.000000D+00  0.819471D-01 -0.528971D-01 -0.290507D-01  0.000000D+00
     14  0.779186D-01 -0.861463D-01  0.662720D-02  0.304871D-02 -0.220175D-02
     15 -0.502966D-01 -0.114508D-01  0.556076D-01  0.520496D-02  0.142127D-02
     16 -0.276226D-01 -0.118325D-01  0.840237D-02  0.305393D-01  0.780553D-03
     17  0.000000D+00  0.281479D-01 -0.181697D-01 -0.997819D-02  0.000000D+00
     18  0.000000D+00 -0.665435D-03  0.429544D-03  0.235904D-03  0.000000D+00
                6             7             8             9            10
      6  0.225970D-01
      7  0.000000D+00  0.629504D+00
      8 -0.126585D-03 -0.613436D-01  0.571546D-01
      9 -0.589241D-03 -0.219699D+00  0.627948D-02  0.229046D+00
     10  0.715921D-03 -0.298701D+00 -0.112798D-02 -0.159753D-01  0.314801D+00
     11  0.000000D+00 -0.540515D-01 -0.776024D-03  0.304343D-03  0.843730D-03
     12  0.000000D+00  0.429097D-02 -0.186453D-03  0.441442D-04  0.159170D-03
     13  0.000000D+00  0.000000D+00  0.456127D-01 -0.137038D+00  0.914262D-01
     14  0.753519D-03  0.456127D-01 -0.495117D-01  0.615723D-02 -0.188056D-02
     15 -0.486404D-03 -0.137038D+00 -0.233016D-01  0.148752D+00  0.104528D-01
     16 -0.267133D-03  0.914261D-01  0.275781D-01 -0.190059D-01 -0.992413D-01
     17  0.000000D+00  0.000000D+00 -0.311025D-03  0.934913D-03 -0.623890D-03
     18  0.000000D+00  0.000000D+00 -0.664248D-04  0.199554D-03 -0.133130D-03
               11            12            13            14            15
     11  0.530644D-01
     12  0.615076D-03 -0.492290D-02
     13  0.000000D+00  0.000000D+00  0.629502D+00
     14 -0.311219D-03 -0.664226D-04 -0.325152D+00  0.343513D+00
     15  0.935073D-03  0.199552D-03 -0.166796D+00 -0.134953D-01  0.171621D+00
     16 -0.623856D-03 -0.133130D-03 -0.877940D-01 -0.608796D-02  0.875942D-02
     17  0.000000D+00  0.000000D+00 -0.540515D-01  0.102398D-02 -0.564456D-04
     18  0.000000D+00  0.000000D+00  0.429096D-02  0.197697D-03 -0.328972D-04
               16            17            18
     16  0.858660D-01
     17 -0.595506D-03  0.530644D-01
     18 -0.147939D-03  0.615082D-03 -0.492290D-02
 Leave Link  716 at Wed Apr 10 03:14:21 2013, MaxMem=    6291456 cpu:       0.0
 (Enter /soft/g03/g03/l103.exe)

 GradGradGradGradGradGradGradGradGradGradGradGradGradGradGradGradGradGrad
 Berny optimization.
 Search for a local minimum.
 Step number   1 out of a maximum of   2
 All quantities printed in internal units (Hartrees-Bohrs-Radians)
 Second derivative matrix not updated -- analytic derivatives used.
 The second derivative matrix:
                          X1        Y1        Z1        X2        Y2
           X1           0.33887
           Y1           0.00000   0.62950
           Z1           0.00000   0.00000   0.62950
           X2          -0.06104  -0.01377   0.08195   0.06560
           Y2          -0.01309  -0.06134   0.04561   0.01447   0.05715
           Z2           0.07792   0.04561  -0.32515  -0.08615  -0.04951
           X3          -0.06104  -0.06408  -0.05290   0.00320   0.00984
           Y3          -0.06093  -0.21970  -0.13704   0.00309   0.00628
           Z3          -0.05030  -0.13704  -0.16680  -0.01145  -0.02330
           X4          -0.06104   0.07786  -0.02905   0.00320  -0.01146
           Y4           0.07403  -0.29870   0.09143   0.00082  -0.00113
           Z4          -0.02762   0.09143  -0.08779  -0.01183   0.02758
           X5          -0.08261   0.00000   0.00000  -0.01478   0.00037
           Y5           0.00000  -0.05405   0.00000  -0.00473  -0.00078
           Z5           0.00000   0.00000  -0.05405   0.02815  -0.00031
           X6          -0.07313   0.00000   0.00000   0.00382  -0.00013
           Y6           0.00000   0.00429   0.00000   0.00011  -0.00019
           Z6           0.00000   0.00000   0.00429  -0.00067  -0.00007
                          Z2        X3        Y3        Z3        X4
           Z2           0.34351
           X3           0.00663   0.06560
           Y3           0.00616   0.06737   0.22905
           Z3          -0.01350   0.05561   0.14875   0.17162
           X4           0.00305   0.00320  -0.01066   0.00520   0.06560
           Y4          -0.00188   0.00837  -0.01598   0.01045  -0.08184
           Z4          -0.00609   0.00840  -0.01901   0.00876   0.03054
           X5          -0.00220  -0.01478   0.00172   0.00142  -0.01478
           Y5          -0.00031  -0.02201   0.00030   0.00094   0.02674
           Z5           0.00102  -0.01817   0.00093  -0.00006  -0.00998
           X6           0.00075   0.00382  -0.00059  -0.00049   0.00382
           Y6          -0.00007   0.00052   0.00004   0.00020  -0.00063
           Z6           0.00020   0.00043   0.00020  -0.00003   0.00024
                          Y4        Z4        X5        Y5        Z5
           Y4           0.31480
           Z4          -0.09924   0.08587
           X5          -0.00209   0.00078   0.08787
           Y5           0.00084  -0.00062   0.00000   0.05306
           Z5          -0.00062  -0.00060   0.00000   0.00000   0.05306
           X6           0.00072  -0.00027   0.03907   0.00000   0.00000
           Y6           0.00016  -0.00013   0.00000   0.00062   0.00000
           Z6          -0.00013  -0.00015   0.00000   0.00000   0.00062
                          X6        Y6        Z6
           X6           0.02260
           Y6           0.00000  -0.00492
           Z6           0.00000   0.00000  -0.00492
     Eigenvalues ---   -0.00150  -0.00097  -0.00097   0.09205   0.09205
     Eigenvalues ---    0.09737   0.12080   0.12080   0.22888   0.48796
     Eigenvalues ---    0.81957   0.81957
 Eigenvalue   1 out of range, new value =    0.001501 Eigenvector:
                           1
           X1          -0.02330
           Y1          -0.00005
           Z1           0.00001
           X2           0.15893
           Y2          -0.00729
           Z2           0.04355
           X3           0.15885
           Y3          -0.03403
           Z3          -0.02812
           X4           0.15922
           Y4           0.04139
           Z4          -0.01544
           X5           0.43407
           Y5          -0.00024
           Z5           0.00004
           X6          -0.85401
           Y6           0.00029
           Z6          -0.00004
 Eigenvalue   2 out of range, new value =    0.000975 Eigenvector:
                           1
           X1           0.00001
           Y1          -0.08773
           Z1           0.05281
           X2          -0.31092
           Y2           0.05495
           Z2          -0.01504
           X3          -0.15891
           Y3           0.05031
           Z3          -0.04172
           X4           0.46961
           Y4           0.02948
           Z4          -0.02434
           X5          -0.00019
           Y5          -0.44218
           Z5           0.26618
           X6           0.00038
           Y6           0.52234
           Z6          -0.31443
 Eigenvalue   3 out of range, new value =    0.000975 Eigenvector:
                           1
           X1           0.00000
           Y1          -0.05281
           Z1          -0.08773
           X2           0.36284
           Y2           0.03905
           Z2           0.03487
           X3          -0.45066
           Y3           0.01234
           Z3           0.03953
           X4           0.08773
           Y4           0.02971
           Z4           0.06034
           X5          -0.00008
           Y5          -0.26618
           Z5          -0.44218
           X6           0.00016
           Y6           0.31443
           Z6           0.52234
 Quadratic step=2.299D+01 exceeds max=3.000D-01 adjusted using Lamda=-1.213D-01.
 Angle between NR and scaled steps=  20.13 degrees.
 Angle between quadratic step and forces=  31.70 degrees.
 Linear search not attempted -- first point.
 TrRot=  0.012402  0.000000  0.000000  0.000000  0.000000  0.000000
 Variable       Old X    -DE/DX   Delta X   Delta X   Delta X     New X
                                 (Linear)    (Quad)   (Total)
    X1       -0.45130   0.03180   0.00000   0.05134   0.06374  -0.38757
    Y1        0.00000   0.00000   0.00000   0.00000   0.00000   0.00000
    Z1        0.00000   0.00000   0.00000   0.00000   0.00000   0.00000
    X2       -0.99784  -0.00432   0.00000  -0.03910  -0.02670  -1.02454
    Y2       -0.32720   0.00025   0.00000   0.00318   0.00318  -0.32402
    Z2        1.94739  -0.00148   0.00000  -0.01893  -0.01893   1.92846
    X3       -0.99784  -0.00432   0.00000  -0.03910  -0.02670  -1.02453
    Y3       -1.52289   0.00116   0.00000   0.01480   0.01480  -1.50809
    Z3       -1.25705   0.00096   0.00000   0.01222   0.01222  -1.24483
    X4       -0.99786  -0.00432   0.00000  -0.03910  -0.02670  -1.02455
    Y4        1.85008  -0.00141   0.00000  -0.01798  -0.01798   1.83210
    Z4       -0.69033   0.00052   0.00000   0.00671   0.00671  -0.68362
    X5        1.79163  -0.03696   0.00000  -0.20635  -0.19395   1.59768
    Y5        0.00001   0.00000   0.00000   0.00000   0.00000   0.00001
    Z5        0.00000   0.00000   0.00000   0.00000   0.00000   0.00000
    X6        3.90973   0.01810   0.00000   0.19790   0.21030   4.12003
    Y6        0.00000   0.00000   0.00000   0.00000   0.00000   0.00000
    Z6        0.00000   0.00000   0.00000   0.00000   0.00000   0.00000
         Item               Value     Threshold  Converged?
 Maximum Force            0.036956     0.000450     NO 
 RMS     Force            0.012399     0.000300     NO 
 Maximum Displacement     0.210302     0.001800     NO 
 RMS     Displacement     0.070376     0.001200     NO 
 Predicted change in Energy=-1.229698D-02
 GradGradGradGradGradGradGradGradGradGradGradGradGradGradGradGradGradGrad

 Leave Link  103 at Wed Apr 10 03:14:21 2013, MaxMem=    6291456 cpu:       0.0
 (Enter /soft/g03/g03/l9999.exe)

 Test job not archived.
 1\1\GINC-AN181\Freq\UMP2-FC\6-31G(d,p)\C1H5(2)\SCANNE04\10-Apr-2013\0\
 \#P MP2 6-31G** IOP(6/7=3) GFINPUT POP=FULL # FREQ\\job\\0,2\C,-0.2388
 200909,-0.0000000909,-0.0000000909\H,-0.5280340909,-0.1731470909,1.030
 5139091\H,-0.5280320909,-0.8058810909,-0.6652040909\H,-0.5280440909,0.
 9790209091,-0.3653080909\H,0.9480899091,0.0000069091,-0.0000010909\H,2
 .0689409091,0.0000009091,-0.0000000909\\Version=AM64L-G03RevC.02\State
 =2-A\HF=-40.6708848\MP2=-40.838759\PUHF=-40.6746807\PMP2-0=-40.8412647
 \S2=0.767868\S2-1=0.755706\S2A=0.750039\RMSD=5.831e-09\RMSF=1.240e-02\
 Dipole=-0.1870444,-0.0000002,0.0000001\DipoleDeriv=0.0937053,0.0000005
 ,0.,0.0000015,0.0464263,0.,-0.0000002,0.,0.0464264,0.0054173,-0.007248
 4,0.0431405,-0.0071754,0.0530627,0.0236861,0.0427046,0.0236861,-0.0839
 29,0.0054175,-0.0337363,-0.0278474,-0.0333957,-0.029169,-0.0711621,-0.
 0275659,-0.071162,-0.0016973,0.0054162,0.0409862,-0.0152935,0.0405712,
 -0.0701923,0.047476,-0.0151387,0.0474759,0.0393276,-0.3129116,-0.00000
 23,0.0000004,-0.000001,0.0388158,0.,0.,0.,0.0388159,0.2029553,0.000000
 3,0.,-0.0000007,-0.0389436,0.,0.0000001,0.,-0.0389436\Polar=24.8412652
 ,-0.0000235,12.6610775,0.0000051,0.0000051,12.6610805\PG=C01 [X(C1H5)]
 \NImag=3\\0.33886800,-0.00000264,0.62950368,0.00000050,-0.00000059,0.6
 2950239,-0.06104340,-0.01376865,0.08194712,0.06559987,-0.01309177,-0.0
 6134364,0.04561274,0.01447425,0.05715461,0.07791863,0.04561272,-0.3251
 5154,-0.08614631,-0.04951175,0.34351309,-0.06104312,-0.06408353,-0.052
 89706,0.00319897,0.00983643,0.00662720,0.06559956,-0.06093318,-0.21969
 892,-0.13703830,0.00309084,0.00627948,0.00615723,0.06736740,0.22904624
 ,-0.05029665,-0.13703827,-0.16679628,-0.01145080,-0.02330159,-0.013495
 27,0.05560762,0.14875248,0.17162148,-0.06104494,0.07785541,-0.02905066
 ,0.00319913,-0.01146217,0.00304871,0.00319910,-0.01065753,0.00520496,0
 .06560145,0.07402819,-0.29870056,0.09142616,0.00082117,-0.00112798,-0.
 00188056,0.00837151,-0.01597529,0.01045276,-0.08184488,0.31480093,-0.0
 2762258,0.09142614,-0.08779402,-0.01183248,0.02757805,-0.00608796,0.00
 840237,-0.01900588,0.00875942,0.03053928,-0.09924133,0.08586601,-0.082
 60589,-0.00000028,0.00000006,-0.01477619,0.00036984,-0.00220175,-0.014
 77613,0.00172172,0.00142127,-0.01477630,-0.00209191,0.00078055,0.08786
 568,-0.00000095,-0.05405153,0.,-0.00472941,-0.00077602,-0.00031122,-0.
 02201216,0.00030434,0.00093507,0.02674140,0.00084373,-0.00062386,0.000
 00092,0.05306440,0.00000016,0.,-0.05405150,0.02814790,-0.00031103,0.00
 102398,-0.01816968,0.00093491,-0.00005645,-0.00997819,-0.00062389,-0.0
 0059551,-0.00000017,0.,0.05306439,-0.07313066,-0.00000030,0.00000004,0
 .00382162,-0.00012659,0.00075352,0.00382162,-0.00058924,-0.00048640,0.
 00382157,0.00071592,-0.00026713,0.03906882,0.00000021,-0.00000002,0.02
 259703,0.00000037,0.00429097,0.,0.00011179,-0.00018645,-0.00006642,0.0
 0052036,0.00004414,0.00019955,-0.00063223,0.00015917,-0.00013313,-0.00
 000029,0.00061508,0.,0.,-0.00492290,-0.00000006,0.,0.00429096,-0.00066
 544,-0.00006642,0.00019770,0.00042954,0.00019955,-0.00003290,0.0002359
 0,-0.00013313,-0.00014794,0.00000004,0.,0.00061508,0.,0.,-0.00492290\\
 -0.03180255,0.00000023,-0.00000011,0.00431562,-0.00024856,0.00147954,0
 .00431559,-0.00115715,-0.00095512,0.00431564,0.00140534,-0.00052432,0.
 03695559,0.00000011,0.00000002,-0.01809989,0.00000001,0.\\\@


 FLOATING POINT NUMBERS ARE LIKE SANDPILES:
 EVERY TIME THAT YOU MOVE ONE, YOU LOSE A LITTLE SAND 
 AND YOU PICK UP A LITTLE DIRT.
 Job cpu time:  0 days  0 hours  0 minutes  9.5 seconds.
 File lengths (MBytes):  RWF=     54 Int=      0 D2E=      0 Chk=      6 Scr=      1
 Normal termination of Gaussian 03 at Wed Apr 10 03:14:21 2013.
total 20
drwx------  2 scanne04 2013007  4096 Apr 10 03:14 .
drwxrwxrwt 69 root     root    12288 Apr 10 03:14 ..
-rw-r--r--  1 scanne04 2013007   394 Apr 10 03:14 4.r_0.399.inp
/local/run/antares-adm.114836.0
