6
Frame 17: Geometry 5, Energy: -1.01123 Ha
C 0.02410913130117918 -0.04864793016898626 0.01631643012378192
H 0.004032987891088175 -0.007661766917742657 1.102174516046697
H 1.021486022840475 -0.008408293444878328 -0.4133379207128374
H -0.616628659653126 -0.8136371828310484 -0.4139770779000317
H -0.5277497172909966 1.073648685284003 -0.3546703416341313
H -0.9475984226086785 1.924937783476695 -0.637341633129607
