

 Parallel Execution: Process Information
 ==============================================================================
 Rank   Node Name                              NodeID   MyNodeRank  NodeMaster
    0   macbookproeric2018.home                   0          0          0
    1   macbookproeric2018.home                   0          1         -1
    2   macbookproeric2018.home                   0          2         -1
    3   macbookproeric2018.home                   0          3         -1
    4   macbookproeric2018.home                   0          4         -1
    5   macbookproeric2018.home                   0          5         -1
    6   macbookproeric2018.home                   0          6         -1
    7   macbookproeric2018.home                   0          7         -1
    8   macbookproeric2018.home                   0          8         -1
    9   macbookproeric2018.home                   0          9         -1
 ==============================================================================


May use up to 17578MB of RAM as shared memory on node 0

 *******************************************************************************
 *                                                                             *
 *  --------------------------------                                           *
 *   Amsterdam Modeling Suite (AMS)              2024.102                      *
 *  --------------------------------                                           *
 *                                               r122055 2024-06-07            *
 *                                                                             *
 *                                                                             *
 *                              =================                              *
 *                              |               |                              *
 *                              |     A M S     |                              *
 *                              |               |                              *
 *                              =================                              *
 *                                                                             *
 *                                                                             *
 *   Online information and documentation:  https://www.scm.com/support/       *
 *   E-mail:  support@scm.com   info@scm.com                                   *
 *                                                                             *
 *   Scientific publications using AMS results must be properly referenced     *
 *   See the User Manuals (or the web site) for recommended citations          *
 *   The terms and conditions of the End User License Agreement apply to       *
 *   the use of AMS, https://www.scm.com/license-terms/                        *
 *                                                                             *
 **********************  x86_64_darwin_intel / openmpi  ************************
 
 Licensed to: Prof. Eric HENON / Institut de Chimie Moléculaire de Reims / Reims / FRANCE 2024-07-19 18:58:06
 SCM User ID: u27163
  
 AMS 2024.102  RunTime: Aug16-2024 11:37:07  ShM Nodes: 1  Procs: 10

 AMS jobname: ams
 AMS jobid  : 1290086534

 Start   directory: /Users/henon1/0testJobs/2_ChemistrySofts/4_ADF/5_BimolReaction/2ex_vtst/2_TS/tmp.henon1.5856.0.noindex/
 Results directory: /Users/henon1/0testJobs/2_ChemistrySofts/4_ADF/5_BimolReaction/2ex_vtst/2_TS/ts.results/
 Scratch directory: /tmp/amstmp_ams_kid0.1290086534/


 Communication costs MPI_COMM_WORLD:      1.006 usec per message,   0.0119 usec per 8-byte item
 Communication costs for intra-node:      0.996 usec per message,   0.0127 usec per 8-byte item

 RNG seed: -1342433944 -865618872 1399250279 444159220 -1380550981 1698300488 1061355878 371232796



                     *************************************************************************
                     *  ADF 2024.102  RunTime: Aug16-2024 11:37:09  ShM Nodes: 1  Procs: 10  *
                     *************************************************************************
  

       *****************************
       *  TRANSITION STATE SEARCH  *
       *****************************

Optimization Method                    Quasi Newton
Optimization Coordinates               Delocalized Coordinates
Optimize lattice                       F
 
 ------------------------------------------------------
 Convergence criteria (Hartree,Angstrom)
 ------------------------------------------------------
 Maximum gradient               0.001000000000
 Maximum rms gradient           0.000666666667
 Maximum step allowed           0.010000000000
 Maximum rms step allowed       0.006666666667
 Maximum energy change allowe   0.000060000000
 Maximum stress energy allowe   0.000500000000
 
Initial model Hessian                  Calculated initial Hessian
 
------------------------------------
Quasi-Newton Optimizer Parameters
------------------------------------
Hessian Update Method                  Bofill
Maximum number of steps                  250
First GDIIS cycle                          0
Maximum GDIIS vectors                      0
Trust radius (bohr)                        0.200000
Trust radius varies                        F
Constraints converged at all steps         T
Use projector                              T
 
 Rigid motions settings for: old optimizer
 Atomic rotations (x,y,z):     T T T
 Atomic translations (x,y,z):  T T T
 Tolerance:                   1.000000000000000E-006
 
--------
Geometry
--------
Formula: CH5
Atoms
  Index Symbol   x (angstrom)   y (angstrom)   z (angstrom)
      1      C     0.02194200    -0.04426000     0.01467500
      2      H    -0.00219600     0.00444200     1.09469200
      3      H     1.01255700     0.00397900    -0.41630700
      4      H    -0.62053400    -0.79967400    -0.41656600
      5      H    -0.56934900     1.15742500    -0.38279000
      6      H    -0.94009000     1.91091800    -0.63200800
 
Total System Charge             0.00000
Bonding info available!
 
 
----------------
ADF Engine Input
----------------
 
 Basis
 Core None
 End
 SpinPolarization 1
 XC
 Hybrid B3LYP
 End
 Relativity
 Level None
 End
 Unrestricted Yes
 

 Title: *** (NO TITLE) ***

Challenging geometry: could not add a dihedral for atom    2
Challenging geometry: could not add a dihedral for atom    3
Challenging geometry: could not add a dihedral for atom    4
 *** GO1_GOStepInitialHessian ***
 
 RIHartreeFock Dependency: number of modified vectors:           0
  
 Hartree-Fock exchange energy:   -6.81301127492772     
 Mulliken charges used for AMS results%charges...
 Continuous PES requested. Disabling symmetry...
 *** GO1_GOStepInitialHessian_CentralGeo ***
 
 RIHartreeFock Dependency: number of modified vectors:           0
  
 Hartree-Fock exchange energy:   -6.81301126836116     
 Mulliken charges used for AMS results%charges...
 Continuous PES requested. Disabling symmetry...
 *** GO1_GOStepInitialHessian-NumNuclDerivs_displ1 ***
 
 RIHartreeFock Dependency: number of modified vectors:           0
  
 Hartree-Fock exchange energy:   -6.81317365930423     

 Energy gradients wrt nuclear displacements
 ==========================================

     Atom      Cartesian (a.u./angstrom)
                 X         Y         Z
 ----------------------------------------
     1 C     0.002883  0.005703 -0.001783
     2 H     0.000450 -0.001767 -0.005917
     3 H    -0.008054 -0.001894  0.003951
     4 H     0.003023  0.001715  0.002670
     5 H    -0.003036  0.005685 -0.001990
     6 H     0.004734 -0.009443  0.003069
 ----------------------------------------
 Mulliken charges used for AMS results%charges...
 Continuous PES requested. Disabling symmetry...
 *** GO1_GOStepInitialHessian-NumNuclDerivs_displ3 ***
 
 RIHartreeFock Dependency: number of modified vectors:           0
  
 Hartree-Fock exchange energy:   -6.81268877340937     

 Energy gradients wrt nuclear displacements
 ==========================================

     Atom      Cartesian (a.u./angstrom)
                 X         Y         Z
 ----------------------------------------
     1 C    -0.000255  0.006284 -0.000112
     2 H     0.000790 -0.001947 -0.006248
     3 H    -0.005496 -0.002037  0.002925
     4 H     0.003227  0.001354  0.002460
     5 H    -0.003469  0.006795 -0.002440
     6 H     0.005202 -0.010449  0.003415
 ----------------------------------------
 Mulliken charges used for AMS results%charges...
 Continuous PES requested. Disabling symmetry...
 *** GO1_GOStepInitialHessian-NumNuclDerivs_displ5 ***
 
 RIHartreeFock Dependency: number of modified vectors:           0
  
 Hartree-Fock exchange energy:   -6.81311389053493     

 Energy gradients wrt nuclear displacements
 ==========================================

     Atom      Cartesian (a.u./angstrom)
                 X         Y         Z
 ----------------------------------------
     1 C    -0.002381  0.005158  0.003984
     2 H     0.000945 -0.001766 -0.009285
     3 H    -0.004225 -0.001812  0.002054
     4 H     0.003813  0.002139  0.002365
     5 H    -0.002885  0.005834 -0.002274
     6 H     0.004732 -0.009553  0.003155
 ----------------------------------------
 Mulliken charges used for AMS results%charges...
 Continuous PES requested. Disabling symmetry...
 *** GO1_GOStepInitialHessian-NumNuclDerivs_displ7 ***
 
 RIHartreeFock Dependency: number of modified vectors:           0
  
 Hartree-Fock exchange energy:   -6.81303573696403     

 Energy gradients wrt nuclear displacements
 ==========================================

     Atom      Cartesian (a.u./angstrom)
                 X         Y         Z
 ----------------------------------------
     1 C    -0.002288  0.003973 -0.001162
     2 H     0.001294 -0.001589 -0.006127
     3 H    -0.005247 -0.001756  0.003229
     4 H     0.004436  0.003004  0.003084
     5 H    -0.003050  0.006172 -0.002212
     6 H     0.004855 -0.009804  0.003188
 ----------------------------------------
 Mulliken charges used for AMS results%charges...
 Continuous PES requested. Disabling symmetry...
 *** GO1_GOStepInitialHessian-NumNuclDerivs_displ9 ***
 
 RIHartreeFock Dependency: number of modified vectors:           0
  
 Hartree-Fock exchange energy:   -6.81295750284870     

 Energy gradients wrt nuclear displacements
 ==========================================

     Atom      Cartesian (a.u./angstrom)
                 X         Y         Z
 ----------------------------------------
     1 C    -0.001954  0.003793 -0.001335
     2 H     0.000963 -0.001368 -0.005838
     3 H    -0.005276 -0.001737  0.002952
     4 H     0.004417  0.003031  0.003042
     5 H    -0.002986  0.006044 -0.001994
     6 H     0.004836 -0.009763  0.003172
 ----------------------------------------
 Mulliken charges used for AMS results%charges...
 Continuous PES requested. Disabling symmetry...
 *** GO1_GOStepInitialHessian-NumNuclDerivs_displ11 ***
 
 RIHartreeFock Dependency: number of modified vectors:           0
  
 Hartree-Fock exchange energy:   -6.81196194989143     

 Energy gradients wrt nuclear displacements
 ==========================================

     Atom      Cartesian (a.u./angstrom)
                 X         Y         Z
 ----------------------------------------
     1 C    -0.001752  0.003868 -0.004422
     2 H     0.000796 -0.001476 -0.002656
     3 H    -0.005307 -0.001767  0.002872
     4 H     0.004440  0.003031  0.003191
     5 H    -0.003029  0.006134 -0.002181
     6 H     0.004852 -0.009789  0.003194
 ----------------------------------------
 Mulliken charges used for AMS results%charges...
 Continuous PES requested. Disabling symmetry...
 *** GO1_GOStepInitialHessian-NumNuclDerivs_displ13 ***
 
 RIHartreeFock Dependency: number of modified vectors:           0
  
 Hartree-Fock exchange energy:   -6.81204914495469     

 Energy gradients wrt nuclear displacements
 ==========================================

     Atom      Cartesian (a.u./angstrom)
                 X         Y         Z
 ----------------------------------------
     1 C    -0.004601  0.003842 -0.000164
     2 H     0.000916 -0.001665 -0.006071
     3 H    -0.002380 -0.001564  0.001839
     4 H     0.004299  0.003031  0.003344
     5 H    -0.003094  0.006150 -0.002126
     6 H     0.004861 -0.009794  0.003177
 ----------------------------------------
 Mulliken charges used for AMS results%charges...
 Continuous PES requested. Disabling symmetry...
 *** GO1_GOStepInitialHessian-NumNuclDerivs_displ15 ***
 
 RIHartreeFock Dependency: number of modified vectors:           0
  
 Hartree-Fock exchange energy:   -6.81295517035425     

 Energy gradients wrt nuclear displacements
 ==========================================

     Atom      Cartesian (a.u./angstrom)
                 X         Y         Z
 ----------------------------------------
     1 C    -0.001984  0.003798 -0.001270
     2 H     0.000894 -0.001639 -0.006039
     3 H    -0.005074 -0.001475  0.002938
     4 H     0.004210  0.003032  0.003352
     5 H    -0.002880  0.006045 -0.002155
     6 H     0.004834 -0.009762  0.003174
 ----------------------------------------
 Mulliken charges used for AMS results%charges...
 Continuous PES requested. Disabling symmetry...
 *** GO1_GOStepInitialHessian-NumNuclDerivs_displ17 ***
 
 RIHartreeFock Dependency: number of modified vectors:           0
  
 Hartree-Fock exchange energy:   -6.81343247287997     

 Energy gradients wrt nuclear displacements
 ==========================================

     Atom      Cartesian (a.u./angstrom)
                 X         Y         Z
 ----------------------------------------
     1 C    -0.000859  0.004063 -0.002100
     2 H     0.001176 -0.001656 -0.006106
     3 H    -0.006385 -0.001764  0.003830
     4 H     0.004291  0.002994  0.003328
     5 H    -0.003080  0.006168 -0.002138
     6 H     0.004857 -0.009805  0.003187
 ----------------------------------------
 Mulliken charges used for AMS results%charges...
 Continuous PES requested. Disabling symmetry...
 *** GO1_GOStepInitialHessian-NumNuclDerivs_displ19 ***
 
 RIHartreeFock Dependency: number of modified vectors:           0
  
 Hartree-Fock exchange energy:   -6.81363842737271     

 Energy gradients wrt nuclear displacements
 ==========================================

     Atom      Cartesian (a.u./angstrom)
                 X         Y         Z
 ----------------------------------------
     1 C    -0.003245  0.002861 -0.001828
     2 H     0.000915 -0.001653 -0.006004
     3 H    -0.005386 -0.001961  0.002824
     4 H     0.005879  0.004330  0.003951
     5 H    -0.003025  0.006229 -0.002136
     6 H     0.004862 -0.009805  0.003193
 ----------------------------------------
 Mulliken charges used for AMS results%charges...
 Continuous PES requested. Disabling symmetry...
 *** GO1_GOStepInitialHessian-NumNuclDerivs_displ21 ***
 
 RIHartreeFock Dependency: number of modified vectors:           0
  
 Hartree-Fock exchange energy:   -6.81374203936829     

 Energy gradients wrt nuclear displacements
 ==========================================

     Atom      Cartesian (a.u./angstrom)
                 X         Y         Z
 ----------------------------------------
     1 C    -0.003165  0.002398 -0.002102
     2 H     0.000889 -0.001634 -0.006006
     3 H    -0.005248 -0.001732  0.002933
     4 H     0.005737  0.004752  0.004157
     5 H    -0.003061  0.005977 -0.002162
     6 H     0.004848 -0.009761  0.003180
 ----------------------------------------
 Mulliken charges used for AMS results%charges...
 Continuous PES requested. Disabling symmetry...
 *** GO1_GOStepInitialHessian-NumNuclDerivs_displ23 ***
 
 RIHartreeFock Dependency: number of modified vectors:           0
  
 Hartree-Fock exchange energy:   -6.81343570287951     

 Energy gradients wrt nuclear displacements
 ==========================================

     Atom      Cartesian (a.u./angstrom)
                 X         Y         Z
 ----------------------------------------
     1 C    -0.002457  0.003265 -0.002103
     2 H     0.000713 -0.001882 -0.006108
     3 H    -0.005187 -0.001671  0.003006
     4 H     0.005095  0.003893  0.004159
     5 H    -0.003025  0.006196 -0.002139
     6 H     0.004861 -0.009801  0.003185
 ----------------------------------------
 Mulliken charges used for AMS results%charges...
 Continuous PES requested. Disabling symmetry...
 *** GO1_GOStepInitialHessian-NumNuclDerivs_displ25 ***
 
 RIHartreeFock Dependency: number of modified vectors:           0
  
 Hartree-Fock exchange energy:   -6.81285948534181     

 Energy gradients wrt nuclear displacements
 ==========================================

     Atom      Cartesian (a.u./angstrom)
                 X         Y         Z
 ----------------------------------------
     1 C    -0.001869  0.003632 -0.001068
     2 H     0.000870 -0.001619 -0.006035
     3 H    -0.005339 -0.001609  0.002891
     4 H     0.004416  0.002972  0.003264
     5 H    -0.002753  0.006286 -0.002190
     6 H     0.004673 -0.009661  0.003138
 ----------------------------------------
 Mulliken charges used for AMS results%charges...
 Continuous PES requested. Disabling symmetry...
 *** GO1_GOStepInitialHessian-NumNuclDerivs_displ27 ***
 
 RIHartreeFock Dependency: number of modified vectors:           0
  
 Hartree-Fock exchange energy:   -6.81332187385764     

 Energy gradients wrt nuclear displacements
 ==========================================

     Atom      Cartesian (a.u./angstrom)
                 X         Y         Z
 ----------------------------------------
     1 C    -0.002292  0.004743 -0.001517
     2 H     0.000931 -0.001747 -0.006028
     3 H    -0.005253 -0.001847  0.002983
     4 H     0.004506  0.002851  0.003327
     5 H    -0.002876  0.006177 -0.002041
     6 H     0.004984 -0.010178  0.003275
 ----------------------------------------
 Mulliken charges used for AMS results%charges...
 Continuous PES requested. Disabling symmetry...
 *** GO1_GOStepInitialHessian-NumNuclDerivs_displ29 ***
 
 RIHartreeFock Dependency: number of modified vectors:           0
  
 Hartree-Fock exchange energy:   -6.81290964373015     

 Energy gradients wrt nuclear displacements
 ==========================================

     Atom      Cartesian (a.u./angstrom)
                 X         Y         Z
 ----------------------------------------
     1 C    -0.001710  0.003781 -0.001351
     2 H     0.000819 -0.001517 -0.006078
     3 H    -0.005254 -0.001777  0.002945
     4 H     0.004415  0.002983  0.003264
     5 H    -0.003079  0.006233 -0.001819
     6 H     0.004809 -0.009703  0.003038
 ----------------------------------------
 Mulliken charges used for AMS results%charges...
 Continuous PES requested. Disabling symmetry...
 *** GO1_GOStepInitialHessian-NumNuclDerivs_displ31 ***
 
 RIHartreeFock Dependency: number of modified vectors:           0
  
 Hartree-Fock exchange energy:   -6.81331022098278     

 Energy gradients wrt nuclear displacements
 ==========================================

     Atom      Cartesian (a.u./angstrom)
                 X         Y         Z
 ----------------------------------------
     1 C    -0.001973  0.004420 -0.001331
     2 H     0.000896 -0.001676 -0.006034
     3 H    -0.005261 -0.001777  0.002948
     4 H     0.004424  0.003003  0.003272
     5 H    -0.003209  0.006264 -0.002185
     6 H     0.005123 -0.010234  0.003330
 ----------------------------------------
 Mulliken charges used for AMS results%charges...
 Continuous PES requested. Disabling symmetry...
 *** GO1_GOStepInitialHessian-NumNuclDerivs_displ33 ***
 
 RIHartreeFock Dependency: number of modified vectors:           0
  
 Hartree-Fock exchange energy:   -6.81240389217344     

 Energy gradients wrt nuclear displacements
 ==========================================

     Atom      Cartesian (a.u./angstrom)
                 X         Y         Z
 ----------------------------------------
     1 C    -0.001506  0.003419 -0.000983
     2 H     0.000877 -0.001634 -0.006030
     3 H    -0.005275 -0.001732  0.002929
     4 H     0.004395  0.003033  0.003251
     5 H    -0.002904  0.005755 -0.002054
     6 H     0.004414 -0.008842  0.002886
 ----------------------------------------
 Mulliken charges used for AMS results%charges...
 Continuous PES requested. Disabling symmetry...
 *** GO1_GOStepInitialHessian-NumNuclDerivs_displ35 ***
 
 RIHartreeFock Dependency: number of modified vectors:           0
  
 Hartree-Fock exchange energy:   -6.81321164989919     

 Energy gradients wrt nuclear displacements
 ==========================================

     Atom      Cartesian (a.u./angstrom)
                 X         Y         Z
 ----------------------------------------
     1 C    -0.001969  0.004306 -0.001242
     2 H     0.000896 -0.001673 -0.006023
     3 H    -0.005275 -0.001769  0.002949
     4 H     0.004421  0.003004  0.003268
     5 H    -0.003072  0.006220 -0.002287
     6 H     0.004998 -0.010088  0.003335
 ----------------------------------------
 Mulliken charges used for AMS results%charges...
 *** GO1_GOStep1 ***
 
 RIHartreeFock Dependency: number of modified vectors:           0
  
 Hartree-Fock exchange energy:   -6.81301127492781     

 Energy gradients wrt nuclear displacements
 ==========================================

     Atom      Cartesian (a.u./angstrom)
                 X         Y         Z
 ----------------------------------------
     1 C    -0.001854  0.004074 -0.001217
     2 H     0.000890 -0.001661 -0.006033
     3 H    -0.005272 -0.001760  0.002944
     4 H     0.004412  0.003007  0.003263
     5 H    -0.003028  0.006131 -0.002140
     6 H     0.004851 -0.009790  0.003183
 ----------------------------------------
 Mulliken charges used for AMS results%charges...
           Primitive Internal Coordinates (atoms in internal order)
-------------------------------------------------------------------------------
    index    type      i       j       k       l   value(A,deg)     TSRC Vect
-------------------------------------------------------------------------------
       1     bnd       1       3       0       0     1.08138363    -0.00866870
       2     bnd       1       5       0       0     1.39701479     0.77797408
       3     bnd       1       2       0       0     1.08138395    -0.00862741
       4     bnd       1       4       0       0     1.08138546    -0.00863624
       5     bnd       1       6       0       0     2.27297723     0.30343066
       6     bnd       5       6       0       0     0.87596244    -0.47454339
       7     ang       3       1       5       0   103.64847241    -0.10033877
       8     ang       3       1       2       0   114.61266647     0.07531345
       9     ang       3       1       4       0   114.61261109     0.07510208
      10     ang       3       1       6       0   103.64818070    -0.10165332
      11     ang       5       1       2       0   103.64841062    -0.09966618
      12     ang       5       1       4       0   103.64855819    -0.10013280
      13     ang       2       1       4       0   114.61260492     0.07668355
      14     ang       2       1       6       0   103.64835080    -0.09862318
      15     ang       4       1       6       0   103.64890973    -0.09986126
      16     anX       1       5       6       0   180.00031730    -0.00259230
      17     anX       1       6       5       0     0.00019502    -0.00159251
      18     anZ       1       5       6       0   179.99899483    -0.00248529
      19     anZ       1       6       5       0   359.99938220    -0.00152993
Hessian eigenvector     1(    -0.024) has overlap with TSRC:    0.10000E+01
Hessian eigenvector     1 has the largest overlap with TSRC:  1.00000
           Primitive Internal Coordinates (atoms in internal order)
-------------------------------------------------------------------------------
    index    type      i       j       k       l   value(A,deg)     Max Ovl Vect
-------------------------------------------------------------------------------
       1     bnd       1       3       0       0     1.08138363    -0.00866870
       2     bnd       1       5       0       0     1.39701479     0.77797408
       3     bnd       1       2       0       0     1.08138395    -0.00862741
       4     bnd       1       4       0       0     1.08138546    -0.00863624
       5     bnd       1       6       0       0     2.27297723     0.30343066
       6     bnd       5       6       0       0     0.87596244    -0.47454339
       7     ang       3       1       5       0   103.64847241    -0.10033877
       8     ang       3       1       2       0   114.61266647     0.07531345
       9     ang       3       1       4       0   114.61261109     0.07510208
      10     ang       3       1       6       0   103.64818070    -0.10165332
      11     ang       5       1       2       0   103.64841062    -0.09966618
      12     ang       5       1       4       0   103.64855819    -0.10013280
      13     ang       2       1       4       0   114.61260492     0.07668355
      14     ang       2       1       6       0   103.64835080    -0.09862318
      15     ang       4       1       6       0   103.64890973    -0.09986126
      16     anX       1       5       6       0   180.00031730    -0.00259230
      17     anX       1       6       5       0     0.00019502    -0.00159251
      18     anZ       1       5       6       0   179.99899483    -0.00248529
      19     anZ       1       6       5       0   359.99938220    -0.00152993
 Residual max backtransformation error   0.9414E-01

 Delocalized step failed. Taking Cartesian step

           Cartesian Coordinates
------------------------------------------------------------------------------------------------------
    atom                      coordinates(A)               |                TSRC Vect
------------------------------------------------------------------------------------------------------
       1         0.04149068    -0.08369261     0.02775011    -0.24768518     0.50490144    -0.16758093
       2        -0.00415015     0.00839772     2.06870582    -0.00787663     0.01371366    -0.09633421
       3         1.91348870     0.00752230    -0.78672144    -0.09032503     0.01280013     0.03028617
       4        -1.17266412    -1.51118519    -0.78721384     0.04453451     0.08039323     0.03125954
       5        -1.07591242     2.18721746    -0.72336536     0.33557076    -0.67786480     0.22228407
       6        -1.77654836     3.61117750    -1.19434765    -0.03421843     0.06605634    -0.01991463
------------------------------------------------------------------------------------------------------
Hessian eigenvector     1(    -0.078) has overlap with TSRC:    0.10000E+01
Hessian eigenvector     1 has the largest overlap with TSRC:  1.00000
           Cartesian Coordinates
------------------------------------------------------------------------------------------------------
    atom                      coordinates(A)               |                Max Ovl Vect
------------------------------------------------------------------------------------------------------
       1         0.04149068    -0.08369261     0.02775011    -0.24768518     0.50490144    -0.16758093
       2        -0.00415015     0.00839772     2.06870582    -0.00787663     0.01371366    -0.09633421
       3         1.91348870     0.00752230    -0.78672144    -0.09032503     0.01280013     0.03028617
       4        -1.17266412    -1.51118519    -0.78721384     0.04453451     0.08039323     0.03125954
       5        -1.07591242     2.18721746    -0.72336536     0.33557076    -0.67786480     0.22228407
       6        -1.77654836     3.61117750    -1.19434765    -0.03421843     0.06605634    -0.01991463
------------------------------------------------------------------------------------------------------
 
----------------------------------------------------------------------
Geometry Convergence after Step   1       (Hartree/Angstrom,Angstrom)
----------------------------------------------------------------------
current energy                               -1.00989368 Hartree
energy change                      -1.00989368     0.00006000    F
constrained gradient max            0.00976891     0.00100000    F
constrained gradient rms            0.00422250     0.00066667    F
gradient max                        0.00976891
gradient rms                        0.00422250
cart. step max                      0.00545782     0.01000000    T
cart. step rms                      0.00250936     0.00666667    T
 
 
--------
Geometry
--------
Formula: CH5
Atoms
  Index Symbol   x (angstrom)   y (angstrom)   z (angstrom)
      1      C     0.02450707    -0.04955671     0.01644464
      2      H    -0.00232733     0.00492852     1.09801700
      3      H     1.01548732     0.00438432    -0.41772457
      4      H    -0.62272033    -0.80162206    -0.41815404
      5      H    -0.56973118     1.15832010    -0.38291854
      6      H    -0.94288555     1.91637582    -0.63396850
 
Total System Charge             0.00000
Bonding info available!
 
 *** GO1_GOStep2 ***
 
 RIHartreeFock Dependency: number of modified vectors:           0
  
 Hartree-Fock exchange energy:   -6.80833709178135     

 Energy gradients wrt nuclear displacements
 ==========================================

     Atom      Cartesian (a.u./angstrom)
                 X         Y         Z
 ----------------------------------------
     1 C    -0.001129  0.002513 -0.000785
     2 H     0.000520 -0.000834 -0.003317
     3 H    -0.002958 -0.000980  0.001585
     4 H     0.002384  0.001674  0.001876
     5 H    -0.001557  0.003146 -0.001119
     6 H     0.002740 -0.005519  0.001761
 ----------------------------------------
 Mulliken charges used for AMS results%charges...
 Rebuilding optimization coordinates
Challenging geometry: could not add a dihedral for atom    2
Challenging geometry: could not add a dihedral for atom    3
Challenging geometry: could not add a dihedral for atom    4
Hessian eigenvector     1(    -0.024) has overlap with TSRC:    0.10000E+01
Hessian eigenvector     2(    -0.000) has overlap with TSRC:    0.98344E-04
Hessian eigenvector     1 has the largest overlap with TSRC:  1.00000
           Primitive Internal Coordinates (atoms in internal order)
-------------------------------------------------------------------------------
    index    type      i       j       k       l   value(A,deg)     Max Ovl Vect
-------------------------------------------------------------------------------
       1     bnd       1       3       0       0     1.08326101    -0.00866675
       2     bnd       1       5       0       0     1.40412835     0.77797294
       3     bnd       1       2       0       0     1.08327628    -0.00862308
       4     bnd       1       4       0       0     1.08322741    -0.00864265
       5     bnd       1       6       0       0     2.28555824     0.30342968
       6     bnd       5       6       0       0     0.88142995    -0.47454268
       7     ang       3       1       5       0   103.31621027    -0.10073178
       8     ang       3       1       2       0   114.85508720     0.07408854
       9     ang       3       1       4       0   114.85782313     0.07386699
      10     ang       3       1       6       0   103.31576989    -0.10206491
      11     ang       5       1       2       0   103.31019952    -0.09997751
      12     ang       5       1       4       0   103.31273078    -0.10081643
      13     ang       2       1       4       0   114.87849314     0.07545264
      14     ang       2       1       6       0   103.31943131    -0.09900786
      15     ang       4       1       6       0   103.30393931    -0.10045332
      16     anX       1       5       6       0   179.97192011    -0.00253324
      17     anX       1       6       5       0   359.98274868    -0.00162330
      18     anZ       1       5       6       0   180.01303708    -0.00256885
      19     anZ       1       6       5       0     0.00800969    -0.00154704
 
----------------------------------------------------------------------
Geometry Convergence after Step   2       (Hartree/Angstrom,Angstrom)
----------------------------------------------------------------------
current energy                               -1.01002448 Hartree
energy change                      -0.00013080     0.00006000    F
constrained gradient max            0.00549826     0.00100000    F
constrained gradient rms            0.00234474     0.00066667    F
gradient max                        0.00549826
gradient rms                        0.00234474
cart. step max                      0.03147087     0.01000000    F
cart. step rms                      0.01588417     0.00666667    F
 
 
--------
Geometry
--------
Formula: CH5
Atoms
  Index Symbol   x (angstrom)   y (angstrom)   z (angstrom)
      1      C     0.02621321    -0.05477241     0.01749372
      2      H    -0.00170575    -0.00206549     1.10152469
      3      H     1.01821742    -0.00022723    -0.42023871
      4      H    -0.63165100    -0.79633245    -0.42496488
      5      H    -0.53826031     1.18409003    -0.35199249
      6      H    -0.97048357     1.90213755    -0.66012633
 
Total System Charge             0.00000
Bonding info available!
 
 *** GO1_GOStep3 ***
 
 RIHartreeFock Dependency: number of modified vectors:           0
  
 Hartree-Fock exchange energy:   -6.80160666888430     

 Energy gradients wrt nuclear displacements
 ==========================================

     Atom      Cartesian (a.u./angstrom)
                 X         Y         Z
 ----------------------------------------
     1 C    -0.002789 -0.002128 -0.002698
     2 H    -0.000340  0.001147 -0.000575
     3 H    -0.000478  0.000514 -0.000150
     4 H     0.000595 -0.001798  0.000617
     5 H     0.005534  0.004183  0.005364
     6 H    -0.002521 -0.001919 -0.002558
 ----------------------------------------
 Mulliken charges used for AMS results%charges...
Hessian eigenvector     1(    -0.024) has overlap with TSRC:    0.10000E+01
Hessian eigenvector     2(    -0.000) has overlap with TSRC:    0.36730E-15
Hessian eigenvector     1 has the largest overlap with TSRC:  1.00000
           Primitive Internal Coordinates (atoms in internal order)
-------------------------------------------------------------------------------
    index    type      i       j       k       l   value(A,deg)     Max Ovl Vect
-------------------------------------------------------------------------------
       1     bnd       1       3       0       0     1.08565981    -0.00866675
       2     bnd       1       5       0       0     1.41064898     0.77797294
       3     bnd       1       2       0       0     1.08567059    -0.00862308
       4     bnd       1       4       0       0     1.08557185    -0.00864265
       5     bnd       1       6       0       0     2.29827543     0.30342968
       6     bnd       5       6       0       0     0.89294772    -0.47454268
       7     ang       3       1       5       0   102.46842719    -0.10073178
       8     ang       3       1       2       0   115.06487981     0.07408854
       9     ang       3       1       4       0   115.06934493     0.07386699
      10     ang       3       1       6       0   103.56828239    -0.10206491
      11     ang       5       1       2       0   102.04060614    -0.09997751
      12     ang       5       1       4       0   104.51698483    -0.10081643
      13     ang       2       1       4       0   115.12185805     0.07545264
      14     ang       2       1       6       0   103.99894533    -0.09900786
      15     ang       4       1       6       0   101.45886554    -0.10045332
      16     anX       1       5       6       0   173.38152477    -0.00253324
      17     anX       1       6       5       0   355.87396168    -0.00162330
      18     anZ       1       5       6       0   186.54967870    -0.00256885
      19     anZ       1       6       5       0     4.05478592    -0.00154704
 Oscillation detected, halving the step
 Persistent oscillations may indicate discontinuity in the atomic forces.
 
----------------------------------------------------------------------
Geometry Convergence after Step   3       (Hartree/Angstrom,Angstrom)
----------------------------------------------------------------------
current energy                               -1.00980032 Hartree
energy change                       0.00022416     0.00006000    F
constrained gradient max            0.00549279     0.00100000    F
constrained gradient rms            0.00257351     0.00066667    F
gradient max                        0.00551445
gradient rms                        0.00257363
cart. step max                      0.01630065     0.01000000    F
cart. step rms                      0.00750852     0.00666667    F
 
 
--------
Geometry
--------
Formula: CH5
Atoms
  Index Symbol   x (angstrom)   y (angstrom)   z (angstrom)
      1      C     0.02796139    -0.05165915     0.01949332
      2      H     0.00110858    -0.00298433     1.10395643
      3      H     1.02015815     0.00040449    -0.41844315
      4      H    -0.63140114    -0.79087363    -0.42432821
      5      H    -0.55416389     1.16778938    -0.36672799
      6      H    -0.96133308     1.91015324    -0.65225440
 
Total System Charge             0.00000
Bonding info available!
 
 *** GO1_GOStep4 ***
 
 RIHartreeFock Dependency: number of modified vectors:           0
  
 Hartree-Fock exchange energy:   -6.80203893827094     

 Energy gradients wrt nuclear displacements
 ==========================================

     Atom      Cartesian (a.u./angstrom)
                 X         Y         Z
 ----------------------------------------
     1 C    -0.000735 -0.001139 -0.000850
     2 H     0.000027  0.000248 -0.000021
     3 H    -0.000123 -0.000003 -0.000118
     4 H     0.000040 -0.000048  0.000234
     5 H     0.001632  0.002545  0.001872
     6 H    -0.000841 -0.001603 -0.001117
 ----------------------------------------
 Mulliken charges used for AMS results%charges...
Hessian eigenvector     1(    -0.024) has overlap with TSRC:    0.99869E+00
Hessian eigenvector     1 has the largest overlap with TSRC:  0.99869
           Primitive Internal Coordinates (atoms in internal order)
-------------------------------------------------------------------------------
    index    type      i       j       k       l   value(A,deg)     Max Ovl Vect
-------------------------------------------------------------------------------
       1     bnd       1       3       0       0     1.08579619    -0.00868675
       2     bnd       1       5       0       0     1.40537947     0.77705948
       3     bnd       1       2       0       0     1.08588699    -0.00870422
       4     bnd       1       4       0       0     1.08543749    -0.00850271
       5     bnd       1       6       0       0     2.29753267     0.30387486
       6     bnd       5       6       0       0     0.89354137    -0.47316810
       7     ang       3       1       5       0   103.06506229    -0.10509142
       8     ang       3       1       2       0   115.04001313     0.07388410
       9     ang       3       1       4       0   115.01369550     0.07392345
      10     ang       3       1       6       0   103.56822150    -0.10107885
      11     ang       5       1       2       0   103.02160150    -0.10775531
      12     ang       5       1       4       0   103.11710301    -0.08839944
      13     ang       2       1       4       0   115.07829000     0.07539244
      14     ang       2       1       6       0   104.06789080    -0.09820927
      15     ang       4       1       6       0   101.56028451    -0.10195681
      16     anX       1       5       6       0   176.53629689    -0.03125837
      17     anX       1       6       5       0   357.86417383    -0.01927228
      18     anZ       1       5       6       0   183.22543654     0.02751545
      19     anZ       1       6       5       0     1.98303355     0.01693637
 Residual max backtransformation error   0.6501E-02
 
----------------------------------------------------------------------
Geometry Convergence after Step   4       (Hartree/Angstrom,Angstrom)
----------------------------------------------------------------------
current energy                               -1.01002913 Hartree
energy change                      -0.00022882     0.00006000    F
constrained gradient max            0.00254706     0.00100000    F
constrained gradient rms            0.00104872     0.00066667    F
gradient max                        0.00255079
gradient rms                        0.00104874
cart. step max                      0.01654481     0.01000000    F
cart. step rms                      0.00969120     0.00666667    F
 
 
--------
Geometry
--------
Formula: CH5
Atoms
  Index Symbol   x (angstrom)   y (angstrom)   z (angstrom)
      1      C     0.02739463    -0.05610715     0.01829906
      2      H    -0.00249419     0.00559562     1.10183227
      3      H     1.01922246     0.00421652    -0.41919409
      4      H    -0.62459016    -0.80559388    -0.41953701
      5      H    -0.56990783     1.15926308    -0.38327281
      6      H    -0.94729491     1.92545581    -0.63643142
 
Total System Charge             0.00000
Bonding info available!
 
 *** GO1_GOStep5 ***
 
 RIHartreeFock Dependency: number of modified vectors:           0
  
 Hartree-Fock exchange energy:   -6.80184215797108     

 Energy gradients wrt nuclear displacements
 ==========================================

     Atom      Cartesian (a.u./angstrom)
                 X         Y         Z
 ----------------------------------------
     1 C    -0.000153  0.000079 -0.000145
     2 H     0.000098  0.000177  0.000042
     3 H    -0.000030 -0.000049 -0.000075
     4 H    -0.000051 -0.000108  0.000204
     5 H     0.000343 -0.000512  0.000167
     6 H    -0.000207  0.000414 -0.000193
 ----------------------------------------
 Mulliken charges used for AMS results%charges...
Hessian eigenvector     1(    -0.025) has overlap with TSRC:    0.99853E+00
Hessian eigenvector     1 has the largest overlap with TSRC:  0.99853
           Primitive Internal Coordinates (atoms in internal order)
-------------------------------------------------------------------------------
    index    type      i       j       k       l   value(A,deg)     Max Ovl Vect
-------------------------------------------------------------------------------
       1     bnd       1       3       0       0     1.08570789     0.00871885
       2     bnd       1       5       0       0     1.41249956    -0.77804021
       3     bnd       1       2       0       0     1.08570013     0.00882537
       4     bnd       1       4       0       0     1.08559428     0.00835313
       5     bnd       1       6       0       0     2.30332010    -0.30603675
       6     bnd       5       6       0       0     0.89082074     0.47200384
       7     ang       3       1       5       0   102.94035518     0.10606262
       8     ang       3       1       2       0   115.09647649    -0.07376759
       9     ang       3       1       4       0   115.11827909    -0.07425415
      10     ang       3       1       6       0   102.95783006     0.10621276
      11     ang       5       1       2       0   102.89642154     0.10935984
      12     ang       5       1       4       0   103.02718290     0.08628238
      13     ang       2       1       4       0   115.16412157    -0.07551789
      14     ang       2       1       6       0   102.89381960     0.10959913
      15     ang       4       1       6       0   103.01232607     0.08589209
      16     anX       1       5       6       0   180.00000000    -0.00063043
      17     anX       1       6       5       0   360.00000000    -0.00032040
      18     anZ       1       5       6       0   180.05034074     0.00076487
      19     anZ       1       6       5       0     0.03087079     0.00043884
 
----------------------------------------------------------------------
Geometry Convergence after Step   5       (Hartree/Angstrom,Angstrom)
----------------------------------------------------------------------
current energy                               -1.01009412 Hartree
energy change                      -0.00006498     0.00006000    F
constrained gradient max            0.00050085     0.00100000    T
constrained gradient rms            0.00020149     0.00066667    T
gradient max                        0.00050085
gradient rms                        0.00020149
cart. step max                      0.00172290     0.01000000    T
cart. step rms                      0.00078621     0.00666667    T
 
 
--------
Geometry
--------
Formula: CH5
Atoms
  Index Symbol   x (angstrom)   y (angstrom)   z (angstrom)
      1      C     0.02708322    -0.05470673     0.01833854
      2      H    -0.00205365     0.00486775     1.10202646
      3      H     1.01902972     0.00438435    -0.41912542
      4      H    -0.62506709    -0.80387097    -0.41986736
      5      H    -0.56935091     1.15781659    -0.38245889
      6      H    -0.94731128     1.92433902    -0.63721732
 
Total System Charge             0.00000
Bonding info available!
 
 *** GO1_GOStep6 ***
 
 RIHartreeFock Dependency: number of modified vectors:           0
  
 Hartree-Fock exchange energy:   -6.80195688147908     

 Energy gradients wrt nuclear displacements
 ==========================================

     Atom      Cartesian (a.u./angstrom)
                 X         Y         Z
 ----------------------------------------
     1 C     0.000016 -0.000038  0.000045
     2 H     0.000115  0.000114  0.000017
     3 H    -0.000045 -0.000077 -0.000089
     4 H    -0.000077 -0.000003  0.000164
     5 H    -0.000029  0.000046 -0.000052
     6 H     0.000020 -0.000042 -0.000086
 ----------------------------------------
 Mulliken charges used for AMS results%charges...
Hessian eigenvector     1(    -0.029) has overlap with TSRC:    0.99977E+00
Hessian eigenvector     1 has the largest overlap with TSRC:  0.99977
           Primitive Internal Coordinates (atoms in internal order)
-------------------------------------------------------------------------------
    index    type      i       j       k       l   value(A,deg)     Max Ovl Vect
-------------------------------------------------------------------------------
       1     bnd       1       3       0       0     1.08573677    -0.00819324
       2     bnd       1       5       0       0     1.40946269     0.77918446
       3     bnd       1       2       0       0     1.08571524    -0.00904483
       4     bnd       1       4       0       0     1.08562033    -0.00916787
       5     bnd       1       6       0       0     2.30126492     0.30471672
       6     bnd       5       6       0       0     0.89180297    -0.47446460
       7     ang       3       1       5       0   103.01549277    -0.10512564
       8     ang       3       1       2       0   115.06831640     0.07218804
       9     ang       3       1       4       0   115.07127930     0.07145780
      10     ang       3       1       6       0   103.01802144    -0.10890680
      11     ang       5       1       2       0   103.01877805    -0.10121167
      12     ang       5       1       4       0   102.98369494    -0.08904322
      13     ang       2       1       4       0   115.12763893     0.07520791
      14     ang       2       1       6       0   103.04900942    -0.09733544
      15     ang       4       1       6       0   102.95092893    -0.08913888
      16     anX       1       5       6       0   179.90666752    -0.01031389
      17     anX       1       6       5       0   359.94282894    -0.00640330
      18     anZ       1       5       6       0   180.05485396    -0.00567809
      19     anZ       1       6       5       0     0.03360183    -0.00345714
 
---------------------------------------------------------
Geometry Convergence after Step   6       ** CONVERGED **
---------------------------------------------------------
current energy                               -1.01009339 Hartree
energy change                       0.00000073     0.00006000    T
constrained gradient max            0.00005716     0.00100000    T
constrained gradient rms            0.00002117     0.00066667    T
gradient max                        0.00005716
gradient rms                        0.00002117
cart. step max                      0.00020374     0.01000000    T
cart. step rms                      0.00010588     0.00666667    T
 
Geometry optimization converged

Optimized geometry:
 
--------
Geometry
--------
Formula: CH5
Atoms
  Index Symbol   x (angstrom)   y (angstrom)   z (angstrom)
      1      C     0.02708322    -0.05470673     0.01833854
      2      H    -0.00205365     0.00486775     1.10202646
      3      H     1.01902972     0.00438435    -0.41912542
      4      H    -0.62506709    -0.80387097    -0.41986736
      5      H    -0.56935091     1.15781659    -0.38245889
      6      H    -0.94731128     1.92433902    -0.63721732
 
Total System Charge             0.00000
Bonding info available!
 
Performing a single point calculation on the final geometry ...

 *** adf ***



 ===========================
 A T T A C H E D   F I L E S
 ===========================
  
 Restart/tmp/amstmp_ams_kid0.1290086534/GO1_GOStep6.rkf*** GO1_GOStep6 ***



 ===============================
 M O D E L   P A R A M E T E R S
 ===============================
  
 DENSITY FUNCTIONAL POTENTIAL (scf)
    Hybrid:                            B3LYP                                   == Not Default ==

 SPIN  (restricted / unrestr.)
    Molecule:                          UNrestricted                            == Not Default ==
    Fragments:                         Restricted                               

 OTHER ASPECTS
    Relativistic Corrections:          ---                                     == Not Default ==

    Nuclear Charge Density Model:      Point Charge Nuclei                      
    Core Treatment:                    Frozen Orbital(s)                        

    Hyperfine or Zeeman Interaction:   ---                                      



 ===============
 G E O M E T R Y  ***  3D  Molecule  ***
 ===============
  

 ATOMS
 =====                            X Y Z                    CHARGE
                                (Angstrom)             Nucl     +Core       At.Mass
                       --------------------------    ----------------       -------
    1  C               0.0271   -0.0547    0.0183      6.00      6.00       12.0000
    2  H              -0.0021    0.0049    1.1020      1.00      1.00        1.0078
    3  H               1.0190    0.0044   -0.4191      1.00      1.00        1.0078
    4  H              -0.6251   -0.8039   -0.4199      1.00      1.00        1.0078
    5  H              -0.5694    1.1578   -0.3825      1.00      1.00        1.0078
    6  H              -0.9473    1.9243   -0.6372      1.00      1.00        1.0078


 FRAGMENTS
 =========                                     Atoms in this Fragment     Cart. coord.s (Angstrom)
                                               -------------------------------------------------------
    1  C                                                 1  C            0.0271   -0.0547    0.0183
    2  H                                                 2  H           -0.0021    0.0049    1.1020
    3  H                                                 3  H            1.0190    0.0044   -0.4191
    4  H                                                 4  H           -0.6251   -0.8039   -0.4199
    5  H                                                 5  H           -0.5694    1.1578   -0.3825
    6  H                                                 6  H           -0.9473    1.9243   -0.6372


 Interatomic Distance Matrix (Angstrom)
 --------------------------------------

   1)     0.000
   2)     1.086   0.000
   3)     1.086   1.832   0.000
   4)     1.086   1.833   1.832   0.000
   5)     1.409   1.963   1.963   1.963   0.000
   6)     2.301   2.757   2.757   2.756   0.892   0.000

 Min. Distance =    0.8918
 Max. Distance =    2.7573



 =====================================
 S Y M M E T R Y ,   E L E C T R O N S
 =====================================
  
 Symmetry: NOSYM

 Irreducible Representations, including subspecies
 -------------------------------------------------
 A

 Symmetry is NOT used when fitting density


 Configuration of Valence Electrons
 ==================================
 ( determined in the SCF procedure )

 Total:   6 (Spin-A)  + 5 (Spin-B)

 Net Charge: 0 (Nuclei minus Electrons)
 Spin polar: 1 (Spin_A minus Spin_B electrons)

 Aufbau principle for MO occupations will be applied through SCF cycle no.     150
 Thereafter, the program will assign electrons to MOs that are spatially
 similar to the occupied MOs in a "reference" cycle ("KeepOrbitals").
 The reference cycle is always the PREVIOUS cycle: it will evolve with
 the SCF procedure.
1
 ***************************************************************************************************



                                      ****************************************
                                      *  B U I L D : (Fragments, Functions)  *
                                      ****************************************
  



 =======
 S F O s  ***  (Symmetrized Fragment Orbitals)  ***
 =======
  
 SFOs are linear combinations of (valence) Fragment Orbitals (FOs), such that the SFOs transform as the
 irreducible representations of the (molecular) symmetry group. Each SFO is therefore characterized by
 an irrep of the molecule and by a few (or only one) generating FOs.
 The SFOs constitute a symmetry-adapted basis for the Fock matrix. The MO eigenvector coefficients in
 this basis provide a direct interpretation of the MOs in terms of Frontier Orbital Theory.

 The SFOs are combined with auxiliary Core Functions (CFs) to ensure orthogonalization on the (frozen)
 Core Orbitals (COs). The Core-orthogonalized SFOs (CSFOs) constitute the true Fock basis.

 The FOs, and hence also the (C)SFOs are combinations of the elementary basis functions (BAS). The basis
 functions that participate in the description of the SFOs depend on the irrep. The indices of the
 involved functions are printed below for each irrep.
 (The complete list of primitive basis functions is printed in another section)

 Total nr. of (C)SFOs (summation over all irreps) :    20

 NOTE: a (C)SFO that is defined as a combination of more than one FO is usually NOT normalized.



                                       === A ===
 Nr. of SFOs :   20
 Cartesian basis functions that participate in this irrep (total number =    20) :
      1     2     3     4     5     8     6     9     7    10
     11    12    13    14    15    16    17    18    19    20

    SFO  (index         Fragment          Generating    Expansion in Fragment Orbitals
  indx  incl.CFs)   Occup   Orb.Energy   FragmentType  Coeff.   Orbital     on Fragment
 --------------------------------------------------------------------------------------
     1       1      2.000     -10.354 au  C             1.00      1 S               1
                        (    -281.747 eV)
     2       2      2.000      -0.566 au  C             1.00      2 S               1
                        (     -15.403 eV)
     3       3       --         0.439 au  C             1.00      3 S               1
                        (      11.952 eV)
     4       4       --        22.025 au  C             1.00      4 S               1
                        (     599.322 eV)
     5       5      0.667      -0.188 au  C             1.00      1 P:x             1
                        (      -5.117 eV)
     6       6       --         0.484 au  C             1.00      2 P:x             1
                        (      13.170 eV)
     7       7      0.667      -0.188 au  C             1.00      1 P:y             1
                        (      -5.117 eV)
     8       8       --         0.484 au  C             1.00      2 P:y             1
                        (      13.170 eV)
     9       9      0.667      -0.188 au  C             1.00      1 P:z             1
                        (      -5.117 eV)
    10      10       --         0.484 au  C             1.00      2 P:z             1
                        (      13.170 eV)
    11      11      1.000      -0.244 au  H             1.00      1 S               2
                        (      -6.637 eV)
    12      12       --         0.419 au  H             1.00      2 S               2
                        (      11.415 eV)
    13      13      1.000      -0.244 au  H             1.00      1 S               3
                        (      -6.637 eV)
    14      14       --         0.419 au  H             1.00      2 S               3
                        (      11.415 eV)
    15      15      1.000      -0.244 au  H             1.00      1 S               4
                        (      -6.637 eV)
    16      16       --         0.419 au  H             1.00      2 S               4
                        (      11.415 eV)
    17      17      1.000      -0.244 au  H             1.00      1 S               5
                        (      -6.637 eV)
    18      18       --         0.419 au  H             1.00      2 S               5
                        (      11.415 eV)
    19      19      1.000      -0.244 au  H             1.00      1 S               6
                        (      -6.637 eV)
    20      20       --         0.419 au  H             1.00      2 S               6
                        (      11.415 eV)



 ================================
 (Slater-type)  F U N C T I O N S  ***  (Basis and Fit)  ***
 ================================
  

 Atom Type    1  (C)
 ==============

 Valence Basis Sets:   6
 -----------------------
   1 S    7.680000
   1 S    5.000000
   2 S    1.980000
   2 S    1.240000
   2 P    2.200000
   2 P    0.960000

 Charge Fitting Sets (for the computation of the Coulomb Potential):  22
 -----------------------------------------------------------------------
   1 S   15.360000
   2 S   17.530000
   2 S   12.070000
   2 S    8.310000
   2 S    5.730000
   3 S    5.780000
   3 S    4.220000
   3 S    3.080000
   3 S    2.250000
   3 S    1.640000
   2 P    9.880000
   2 P    5.800000
   3 P    5.050000
   3 P    3.230000
   3 P    2.060000
   3 D    7.200000
   3 D    4.400000
   3 D    2.690000
   3 D    1.640000
   4 F    5.400000
   4 F    3.550000
   5 G    4.500000

 Atom Type    2  (H)
 ==============

 Valence Basis Sets:   2
 -----------------------
   1 S    0.760000
   1 S    1.280000

 Charge Fitting Sets (for the computation of the Coulomb Potential):  11
 -----------------------------------------------------------------------
   1 S    3.160000
   1 S    2.090000
   1 S    1.380000
   2 S    1.500000
   2 P    4.000000
   2 P    2.650000
   2 P    1.750000
   3 D    4.000000
   3 D    2.500000
   4 F    3.000000
   5 G    4.000000


 BAS: List of all Elementary Cartesian Basis Functions
 =====================================================

 The numbering in the list below (to the right of the function characteristics) is referred
 to in print-outs of MO eigenvectors and Mulliken populations in the BAS representation
 (as contrasted to the SFO representation).

 Notes:
 1. The functions are characterized by a polynomial prefactor (powers of x,y,z and r) and
    an exponential decay factor alpha.
 2. Since the basis sets are specific for an atom TYPE, the individual functions occur on
    all atoms of that type.
 3. The word 'Core' in the left margin signals that it is a Core Function (CF) : not a
    degree of freedom in the valence set, but only used to ensure orthogonalization of
    the other valence basis functions on the frozen Core Orbitals.


 (power of) X  Y  Z  R     Alpha  on Atom
            ==========     =====     ==========

 C                                    1
                                  ---------------------------------------------------------------------------
            0  0  0  0     7.680      1
            0  0  0  0     5.000      2
            0  0  0  1     1.980      3
            0  0  0  1     1.240      4
            1  0  0  0     2.200      5
            0  1  0  0     2.200      6
            0  0  1  0     2.200      7
            1  0  0  0     0.960      8
            0  1  0  0     0.960      9
            0  0  1  0     0.960     10

 H                                    2    3    4    5    6
                                  ---------------------------------------------------------------------------
            0  0  0  0     0.760     11   13   15   17   19
            0  0  0  0     1.280     12   14   16   18   20

 Total number of charge fitting functions (nprimf)       334
 Total number of Cartesian basis functions (naos)         20
 Total number of Cartesian core functions  (ncos)          0

1
 ***************************************************************************************************



                                              ***********************
                                              *  T E C H N I C A L  *
                                              ***********************
  



 =============================================================
 P A R A L L E L I Z A T I O N  and  V E C T O R I Z A T I O N
 =============================================================
  
 Nr of parallel processes:                               10
 Maximum vector length in NumInt loops:                 128



 =====================
 S C F   U P D A T E S
 =====================
  
 Max. nr. of cycles:                               300
 Convergence criterion:                              0.0000010000
   secondary criterion:                              0.0010000000

 Mix parameter (when DIIS does not apply):           0.2000000000
 Mixed ADIIS+SDIIS will be used                  
    Max number of expansion vectors:                10
    Pure ADIIS when Max([F,P]) is above              0.1000000000
    Pure SDIIS when Max([F,P]) is below              0.0010000000
 Automatic ElectronSmearing (in case of problematic SCF convergence) disabled



 =================
 P R E C I S I O N  ***  (General: NumInt, NeglectFunctionTails, ...)  ***
 =================
  

 NumInt:           Target precision:                 4.0000000000
 -------           Initial precision:                4.0000000000
                   Min. precision (optimization):    4.0000000000

 Neglect Functions:          Basis functions:        0.1000000000E-05
 ------------------          Fit functions:          0.1000000000E-05



 ===========================
 L I N E A R   S C A L I N G
 ===========================
  

 Cut-off radii density fit:                        0.1000000000E-07
 Overlap cut-off criterion AO matrix elements:     0.1000000000E-05
 Cut-offs for Coulomb potential and fitted density:0.1000000000E-07
 Cut-off criterion for Coulomb multipole terms:    0.1000000000E-07
 Progressive Convergence parameter:                 0.000000000    

 Number of elements of the density matrix on this node (used, total):        55       210



 ===========================================
 Numerical Integration : Fuzzy Cells (Becke)
 ===========================================
  
 Becke grid quality: NORMAL         
  
 Lebedev angular grid order:             min:  11 max:  23
 Nr. of radial points:                   min:  46 max:  52

 Total nr. of points:      36258
 Nr. of blocks:              284
 Block length:               128
 Nr. of dummy points:         94


 Test of Precision of the Numerical Integration Grid
 ===================================================

 Integral of the Total Core Density:                   0.00000000000000



 ========================
 Density Fitting (zlmFit)
 ========================
  
 ZlmFit Fit Quality: NORMAL         
  
 Max L-expansion:                        min:   4 max:   5
 Nr. of radial interpolation points:     min:  36 max:  48



 ======================
 RI Hartree-Fock Scheme
 ======================
  
 Fit Set Quality     : NORMAL
 Threshold Quality   : NORMAL
 Integration Quality : NORMAL
 Fit Generation Method : AUTO
 Response Quality    : DEFAULT
 Is Range Separated  :  F
 
 RIHartreeFock Dependency: number of modified vectors:           0



 =====
 S C F  ***  ScaSCF  ***
 =====
  
 Initial density matrix is taken from previous geometry

 CYCLE    1
  ***********************************************************
  ** : orbital data taken from :/tmp/amstmp_ams_kid0.1290086534/GO1_GOStep6.rkf
  ***********************************************************
 SCF Error: norm([F,P])=      0.000000070572, max([F,P])=      0.000000018153
 ***** SPIN 1 *****
 orbitals (Q,E):
 ---------------
 A :1...16           ( 1.00   -10.2032)  ( 1.00    -0.7168)  ( 1.00    -0.4582)  ( 1.00    -0.4293)
                     ( 1.00    -0.4292)  ( 1.00    -0.2228)  ( 0.00     0.0503)  ( 0.00     0.1469)
                     ( 0.00     0.1470)  ( 0.00     0.1731)  ( 0.00     0.4270)  ( 0.00     0.4273)
                     ( 0.00     0.4356)  ( 0.00     0.5336)  ( 0.00     0.8116)  ( 0.00     0.9240)
 ***** SPIN 2 *****
 orbitals (Q,E):
 ---------------
 A :1...15           ( 1.00   -10.1927)  ( 1.00    -0.6894)  ( 1.00    -0.4213)  ( 1.00    -0.4213)
                     ( 1.00    -0.4172)  ( 0.00    -0.0901)  ( 0.00     0.0572)  ( 0.00     0.1532)
                     ( 0.00     0.1532)  ( 0.00     0.1956)  ( 0.00     0.4284)  ( 0.00     0.4286)
                     ( 0.00     0.4788)  ( 0.00     0.5723)  ( 0.00     0.8383)
  
 Spin polar: 1 (Spin_A minus Spin_B electrons)

 CYCLE    2
   MIX coefficients:  0.8000  0.2000
 SCF Error: norm([F,P])=      0.000000037134, max([F,P])=      0.000000009479
 ***** SPIN 1 *****
 orbitals (Q,E):
 ---------------
 A :1...7            ( 1.00   -10.2032)  ( 1.00    -0.7168)  ( 1.00    -0.4582)  ( 1.00    -0.4293)
                     ( 1.00    -0.4292)  ( 1.00    -0.2228)  ( 0.00     0.0503)
 ***** SPIN 2 *****
 orbitals (Q,E):
 ---------------
 A :1...6            ( 1.00   -10.1927)  ( 1.00    -0.6894)  ( 1.00    -0.4213)  ( 1.00    -0.4213)
                     ( 1.00    -0.4172)  ( 0.00    -0.0901)
  
 Spin polar: 1 (Spin_A minus Spin_B electrons)

 SCF CONVERGED

 CYCLE    3
1
 ***************************************************************************************************



                                                *******************
                                                *  R E S U L T S  *
                                                *******************
  
  
 Hartree-Fock exchange energy:   -6.80195687965372     
 *** Using FIT density in Focky
  SDIIS (wt  0.000): -1.6190  2.6190
 A-DIIS (wt  1.000):  0.0000  1.0000
  DIIS coefficients:  0.0000  1.0000
 SCF Error: norm([F,P])=      0.000000026482, max([F,P])=      0.000000006893


                                   ***** SPIN 1 *****

 Orbital Energies, per Irrep and Spin:
 ======================================
                        Occup              E (au)              E (eV)       Diff (eV) with prev. cycle
                        -----      --------------------        ------       --------------------------
 A
               1        1.000     -0.10203194631228E+02      -277.643              -5.27E-07
               2        1.000     -0.71678873294051E+00       -19.505              -2.15E-07
               3        1.000     -0.45823326593554E+00       -12.469              -2.77E-07
               4        1.000     -0.42931688016530E+00       -11.682              -1.95E-07
               5        1.000     -0.42923680325529E+00       -11.680              -2.05E-07
               6        1.000     -0.22281344089054E+00        -6.063              -1.82E-07
               7        0.000      0.50272977471736E-01         1.368
               8        0.000      0.14689105655108E+00         3.997
               9        0.000      0.14696366227124E+00         3.999
              10        0.000      0.17309729033707E+00         4.710
              11        0.000      0.42697702239058E+00        11.619
              12        0.000      0.42731318777547E+00        11.628
              13        0.000      0.43564898162067E+00        11.855
              14        0.000      0.53364860016094E+00        14.521
              15        0.000      0.81163402003413E+00        22.086
              16        0.000      0.92397566088355E+00        25.143
  
 HOMO :        6 A                -0.22281344089054E+00
 LUMO :        7 A                 0.50272977471736E-01
  


                                   ***** SPIN 2 *****

 Orbital Energies, per Irrep and Spin:
 ======================================
                        Occup              E (au)              E (eV)       Diff (eV) with prev. cycle
                        -----      --------------------        ------       --------------------------
 A
               1        1.000     -0.10192667493661E+02      -277.357              -5.83E-07
               2        1.000     -0.68941789399908E+00       -18.760              -2.69E-07
               3        1.000     -0.42133339801322E+00       -11.465              -1.76E-07
               4        1.000     -0.42125139607358E+00       -11.463              -1.83E-07
               5        1.000     -0.41719391875326E+00       -11.352              -2.79E-07
               6        0.000     -0.90139762487522E-01        -2.453
               7        0.000      0.57172930350298E-01         1.556
               8        0.000      0.15316893259507E+00         4.168
               9        0.000      0.15320330681229E+00         4.169
              10        0.000      0.19563637176800E+00         5.324
              11        0.000      0.42835298611420E+00        11.656
              12        0.000      0.42863731760212E+00        11.664
              13        0.000      0.47881130638309E+00        13.029
              14        0.000      0.57228910931571E+00        15.573
              15        0.000      0.83829408912379E+00        22.811
  
 HOMO :        5 A                -0.41719391875326E+00
 LUMO :        6 A                -0.90139762487522E-01
  


 Orbital Energies, both Spins
 ========================================

 Irrep        no.  (spin)   Occup              E (au)                E (eV)
 ---------------------------------------------------------------------------
 A             1     A       1.00       -0.10203194631228E+02      -277.6431
 A             1      B      1.00       -0.10192667493661E+02      -277.3566
 A             2     A       1.00       -0.71678873294051E+00       -19.5048
 A             2      B      1.00       -0.68941789399908E+00       -18.7600
 A             3     A       1.00       -0.45823326593554E+00       -12.4692
 A             4     A       1.00       -0.42931688016530E+00       -11.6823
 A             5     A       1.00       -0.42923680325529E+00       -11.6801
 A             3      B      1.00       -0.42133339801322E+00       -11.4651
 A             4      B      1.00       -0.42125139607358E+00       -11.4628
 A             5      B      1.00       -0.41719391875326E+00       -11.3524
 A             6     A       1.00       -0.22281344089054E+00        -6.0631
 A             6      B      0.00       -0.90139762487522E-01        -2.4528
 A             7     A       0.00        0.50272977471736E-01         1.3680
 A             7      B      0.00        0.57172930350298E-01         1.5558
 A             8     A       0.00        0.14689105655108E+00         3.9971
 A             9     A       0.00        0.14696366227124E+00         3.9991
 A             8      B      0.00        0.15316893259507E+00         4.1679
 A             9      B      0.00        0.15320330681229E+00         4.1689
 A            10     A       0.00        0.17309729033707E+00         4.7102
 A            10      B      0.00        0.19563637176800E+00         5.3235
 A            11     A       0.00        0.42697702239058E+00        11.6186
 A            12     A       0.00        0.42731318777547E+00        11.6278
 A            11      B      0.00        0.42835298611420E+00        11.6561
 A            12      B      0.00        0.42863731760212E+00        11.6638
 A            13     A       0.00        0.43564898162067E+00        11.8546
 A            13      B      0.00        0.47881130638309E+00        13.0291
 A            14     A       0.00        0.53364860016094E+00        14.5213
 A            14      B      0.00        0.57228910931571E+00        15.5728
 A            15     A       0.00        0.81163402003413E+00        22.0857
 A            15      B      0.00        0.83829408912379E+00        22.8111
 A            16     A       0.00        0.92397566088355E+00        25.1427
 A            17     A       0.00        0.92417964403494E+00        25.1482
 A            16      B      0.00        0.93181069891141E+00        25.3559
 A            17      B      0.00        0.93196724982849E+00        25.3601
 A            18     A       0.00        0.10853001447545E+01        29.5325
 A            18      B      0.00        0.10974570492143E+01        29.8633
 A            19     A       0.00        0.12955420118559E+01        35.2535
 A            19      B      0.00        0.13157555870509E+01        35.8035
 A            20     A       0.00        0.24384691675616E+02       663.5412
 A            20      B      0.00        0.24396776193489E+02       663.8701
  
 Spin polar: 1 (Spin_A minus Spin_B electrons)


 All Electron Calculation, thus no Orbital Energies of the Core Orbitals are calculated


 Fit test: (difference of exact and fit density, squared integrated, result summed over spins)
         Sum-of-Fragments:                             0.00000000008028
         Orthogonalized Fragments:                     0.00009308423137
         SCF:                                          0.00028364656463



 ==========================
 Electron Density at Nuclei
 ==========================
  
 The electron density is calculated at points on a small sphere around the center of a nucleus.
 The printed electron density is the average electron density on these points.
 The radius of the sphere is the printed approximate finite nuclear radius.

         Atom        Nuclear Radius (Angstrom)             Electron Density (a.u.)
         ----        -------------------------             -----------------------
     1)   C                 0.0000320678                              126.11999
     2)   H                 0.0000181514                                0.50965
     3)   H                 0.0000181514                                0.51011
     4)   H                 0.0000181514                                0.50986
     5)   H                 0.0000181514                                0.43697
     6)   H                 0.0000181514                                0.42370



 =======================================
 M U L L I K E N   P O P U L A T I O N S
 =======================================
  
 The survey below gives for each atom:
 a) the total charge (Z minus electrons)
 b) the net spin polarization (nr of electrons spin-A minus spin-B)
 c) for each spin the atomic electron valence density (integrated) per L-value.

 Atom              Charge    Spin density          S         P         D         F
 ----              ------    ------------       ------    ------    ------    ------
 1 C              -0.6743          0.7061   A:  1.7174    1.9728    0.0000    0.0000
                                            B:  1.6505    1.3336    0.0000    0.0000
 2 H               0.2247         -0.0285   A:  0.3734    0.0000    0.0000    0.0000
                                            B:  0.4019    0.0000    0.0000    0.0000
 3 H               0.2241         -0.0285   A:  0.3737    0.0000    0.0000    0.0000
                                            B:  0.4022    0.0000    0.0000    0.0000
 4 H               0.2246         -0.0285   A:  0.3734    0.0000    0.0000    0.0000
                                            B:  0.4020    0.0000    0.0000    0.0000
 5 H              -0.0024         -0.1591   A:  0.4216    0.0000    0.0000    0.0000
                                            B:  0.5807    0.0000    0.0000    0.0000
 6 H               0.0032          0.5386   A:  0.7677    0.0000    0.0000    0.0000
                                            B:  0.2291    0.0000    0.0000    0.0000

 Populations of individual BAS functions
 ----------------------------------------
 1 C            0.2380  0.7552  0.4771  0.2471  0.3172  0.3438  0.3126  0.3113  0.3901  0.2977
         B:     0.2383  0.7558  0.4350  0.2214  0.2611  0.1490  0.2808  0.2401  0.1458  0.2568
 2 H           -0.0943  0.4677
         B:    -0.0744  0.4763
 3 H           -0.0944  0.4681
         B:    -0.0744  0.4766
 4 H           -0.0945  0.4679
         B:    -0.0745  0.4765
 5 H            0.0346  0.3871
         B:     0.1854  0.3953
 6 H            0.3381  0.4296
         B:    -0.0300  0.2591

 Gross Charges per Atom (Z minus electrons)
 ==========================================
            -0.6743    0.2247    0.2241    0.2246   -0.0024    0.0032
 Net Total:  0.00000000


 Atom-Atom Population Matrix (off-diagonal elements not doubled)
 ===============================================================


                                   ***** SPIN 1 *****

     1 :     3.3034
     2 :     0.1788    0.2008
     3 :     0.1789   -0.0030    0.2011
     4 :     0.1789   -0.0029   -0.0030    0.2009
     5 :     0.0702   -0.0040   -0.0040   -0.0040    0.2333
     6 :    -0.2200    0.0036    0.0036    0.0036    0.1302    0.8466

                                   ***** SPIN 2 *****

     1 :     2.3200
     2 :     0.1948    0.2282
     3 :     0.1948   -0.0043    0.2285
     4 :     0.1948   -0.0043   -0.0043    0.2283
     5 :     0.0675   -0.0115   -0.0115   -0.0115    0.4301
     6 :     0.0123   -0.0010   -0.0010   -0.0010    0.1176    0.1022



 =================================================
 H I R S H F E L D   C H A R G E   A N A L Y S I S
 =================================================
  
 For each fragment: the (numerical) integral of rho(scf) * rho(fragment)/rho(sum-of-fragments)
 (nuclear charges are included, electrons are counted negative)

 The fragments and their ordering are defined in the early G E O M E T R Y output section.
 If you use single-atom fragments, this usually implies that all atoms of the same
 chemical type are grouped together. This may not be the order in which you listed them
 in the input file!

    1  C                        -0.0979
    2  H                         0.0443
    3  H                         0.0440
    4  H                         0.0442
    5  H                        -0.0087
    6  H                        -0.0259

 Sum of these charges (accuracy NumInt/Tails) =           0.00001158



 =============================
 V O R O N O I   C H A R G E S
 =============================
  
 For each atom: the (numerical) integral of the total electronic charge density in its Voronoi cell,
 i.e. the region of space that is closer to that atom than to any other atom.
 (cf. Wigner-Seitz cells in crystals)

 Within the Voronoi cell the subintegrals over the atomic sphere and the remaining part are evaluated
 separately to give the numbers of electrons (negative charge) in these regions.
 The net total charge in the cell (including the nuclear charge) is also given.

 Values are provided for
[...]
     1 C    -0.000579 -0.000827 -0.000847
     2 H    -0.000059 -0.000101 -0.000055
     3 H     0.000039  0.000012 -0.000027
     4 H     0.000596  0.000859  0.001063
     5 H    -0.000027  0.000110 -0.000052
     6 H     0.000030 -0.000053 -0.000083
 ----------------------------------------
 Mulliken charges used for AMS results%charges...
 Continuous PES requested. Disabling symmetry...
 *** adf-NumNuclDerivs_displ25 ***
 
 RIHartreeFock Dependency: number of modified vectors:           0
  
 Hartree-Fock exchange energy:   -6.80180835578115     

 Energy gradients wrt nuclear displacements
 ==========================================

     Atom      Cartesian (a.u./angstrom)
                 X         Y         Z
 ----------------------------------------
     1 C     0.000011 -0.000495  0.000198
     2 H     0.000095  0.000157  0.000013
     3 H    -0.000114  0.000073 -0.000140
     4 H    -0.000074 -0.000035  0.000165
     5 H     0.000239  0.000270 -0.000124
     6 H    -0.000156  0.000030 -0.000111
 ----------------------------------------
 Mulliken charges used for AMS results%charges...
 Continuous PES requested. Disabling symmetry...
 *** adf-NumNuclDerivs_displ27 ***
 
 RIHartreeFock Dependency: number of modified vectors:           0
  
 Hartree-Fock exchange energy:   -6.80226012999096     

 Energy gradients wrt nuclear displacements
 ==========================================

     Atom      Cartesian (a.u./angstrom)
                 X         Y         Z
 ----------------------------------------
     1 C    -0.000436  0.000660 -0.000263
     2 H     0.000158  0.000025  0.000025
     3 H    -0.000023 -0.000166 -0.000050
     4 H     0.000016 -0.000162  0.000229
     5 H     0.000192 -0.000025  0.000092
     6 H     0.000093 -0.000333 -0.000033
 ----------------------------------------
 Mulliken charges used for AMS results%charges...
 Continuous PES requested. Disabling symmetry...
 *** adf-NumNuclDerivs_displ29 ***
 
 RIHartreeFock Dependency: number of modified vectors:           0
  
 Hartree-Fock exchange energy:   -6.80185685713706     

 Energy gradients wrt nuclear displacements
 ==========================================

     Atom      Cartesian (a.u./angstrom)
                 X         Y         Z
 ----------------------------------------
     1 C     0.000166 -0.000342 -0.000084
     2 H     0.000045  0.000257 -0.000029
     3 H    -0.000028 -0.000092 -0.000088
     4 H    -0.000076 -0.000024  0.000165
     5 H    -0.000103  0.000195  0.000279
     6 H    -0.000004  0.000007 -0.000243
 ----------------------------------------
 Mulliken charges used for AMS results%charges...
 Continuous PES requested. Disabling symmetry...
 *** adf-NumNuclDerivs_displ31 ***
 
 RIHartreeFock Dependency: number of modified vectors:           0
  
 Hartree-Fock exchange energy:   -6.80224985770146     

 Energy gradients wrt nuclear displacements
 ==========================================

     Atom      Cartesian (a.u./angstrom)
                 X         Y         Z
 ----------------------------------------
     1 C    -0.000102  0.000301 -0.000067
     2 H     0.000121  0.000099  0.000016
     3 H    -0.000034 -0.000093 -0.000085
     4 H    -0.000065 -0.000008  0.000173
     5 H    -0.000208  0.000121 -0.000078
     6 H     0.000288 -0.000420  0.000041
 ----------------------------------------
 Mulliken charges used for AMS results%charges...
 Continuous PES requested. Disabling symmetry...
 *** adf-NumNuclDerivs_displ33 ***
 
 RIHartreeFock Dependency: number of modified vectors:           0
  
 Hartree-Fock exchange energy:   -6.80136300803075     

 Energy gradients wrt nuclear displacements
 ==========================================

     Atom      Cartesian (a.u./angstrom)
                 X         Y         Z
 ----------------------------------------
     1 C     0.000356 -0.000680  0.000273
     2 H     0.000101  0.000142  0.000019
     3 H    -0.000049 -0.000048 -0.000103
     4 H    -0.000095  0.000024  0.000152
     5 H     0.000038 -0.000239 -0.000003
     6 H    -0.000353  0.000800 -0.000339
 ----------------------------------------
 Mulliken charges used for AMS results%charges...
 Continuous PES requested. Disabling symmetry...
 *** adf-NumNuclDerivs_displ35 ***
 
 RIHartreeFock Dependency: number of modified vectors:           0
  
 Hartree-Fock exchange energy:   -6.80215421492466     

 Energy gradients wrt nuclear displacements
 ==========================================

     Atom      Cartesian (a.u./angstrom)
                 X         Y         Z
 ----------------------------------------
     1 C    -0.000096  0.000191  0.000018
     2 H     0.000121  0.000102  0.000027
     3 H    -0.000048 -0.000086 -0.000084
     4 H    -0.000068 -0.000006  0.000169
     5 H    -0.000052  0.000093 -0.000211
     6 H     0.000143 -0.000293  0.000081
 ----------------------------------------
 Mulliken charges used for AMS results%charges...
Scanning modes in range provided by user.
Scanning Mode: 7
 *** SCANMODE_forward_adf_ScanMode_7 ***
 
 RIHartreeFock Dependency: number of modified vectors:           0
  
 Hartree-Fock exchange energy:   -6.80172296622192     

 Energy gradients wrt nuclear displacements
 ==========================================

     Atom      Cartesian (a.u./angstrom)
                 X         Y         Z
 ----------------------------------------
     1 C     0.000303 -0.000629  0.000247
     2 H     0.000089  0.000169  0.000016
     3 H    -0.000052 -0.000020 -0.000116
     4 H    -0.000115  0.000039  0.000136
     5 H    -0.000223  0.000437 -0.000180
     6 H    -0.000002  0.000003 -0.000104
 ----------------------------------------
 Mulliken charges used for AMS results%charges...
Old/New Frequency [cm-1]: -1143.423746/-1143.245003



    =====================
     CALCULATION RESULTS
    =====================

Energy (hartree)            -1.01009339

Gradients (hartree/bohr)
  Index   Atom            d/dx            d/dy            d/dz
      1      C    0.0000087086   -0.0000201942    0.0000239517
      2      H    0.0000610229    0.0000601499    0.0000091987
      3      H   -0.0000236729   -0.0000408009   -0.0000469763
      4      H   -0.0000409414   -0.0000013569    0.0000868638
      5      H   -0.0000155104    0.0000242850   -0.0000275873
      6      H    0.0000103933   -0.0000220828   -0.0000454506

 -----------------------
 Normal Mode Frequencies
 -----------------------

 Index   Frequency (cm-1)   Red. mass (u)  F const (Ha/Bohr^2)   Intensity (km/mol)
     7         -1143.2450          1.1731            -0.058024              30.7611
     8           575.3555          1.0445             0.013085               1.2385
     9           579.6687          1.0441             0.013277               1.2126
    10          1131.4243          1.0694             0.051808              28.1142
    11          1190.7601          1.0450             0.056073               2.0409
    12          1192.0767          1.0457             0.056237               2.1112
    13          1462.3542          1.0810             0.087481              11.0223
    14          1466.2186          1.0818             0.088010              10.7928
    15          1905.5543          1.0765             0.147930              29.0775
    16          3052.8548          1.0166             0.358542               0.9306
    17          3206.2537          1.1108             0.432142               4.9136
    18          3208.4087          1.1110             0.432790               4.8756

 Zero-point energy (Hartree):     0.0432

 ------------
 Normal Modes
 ------------

 Number of removed rigid normal modes: 6
 
 Mode:     7      Frequency (cm-1):    -1143.2450     Intensity (km/mol):       30.7611
 Index  Atom      ---- Displacements (x/y/z) ----
     1     C      -0.051861   0.105466  -0.034992
     2     H       0.057544  -0.118439  -0.006025
     3     H       0.016779  -0.118762   0.056679
     4     H       0.083913  -0.086634   0.057531
     5     H       0.406244  -0.823243   0.270787
     6     H       0.053018  -0.108688   0.037667
 
 Mode:     8      Frequency (cm-1):      575.3555     Intensity (km/mol):        1.2385
 Index  Atom      ---- Displacements (x/y/z) ----
     1     C      -0.050792  -0.026873  -0.005624
     2     H       0.074259   0.102377  -0.009170
     3     H      -0.132296   0.487122  -0.123082
     4     H       0.321254  -0.450126   0.163804
     5     H      -0.171821  -0.090511  -0.018401
     6     H       0.513370   0.271110   0.053809
 
 Mode:     9      Frequency (cm-1):      579.6687     Intensity (km/mol):        1.2126
 Index  Atom      ---- Displacements (x/y/z) ----
     1     C      -0.012373   0.012161   0.054754
     2     H       0.284453  -0.550321   0.094459
     3     H      -0.142067   0.285906  -0.203425
     4     H      -0.078717   0.205374  -0.176702
     5     H      -0.040851   0.040051   0.190641
     6     H       0.124511  -0.125810  -0.556918
 
 Mode:    10      Frequency (cm-1):     1131.4243     Intensity (km/mol):       28.1142
 Index  Atom      ---- Displacements (x/y/z) ----
     1     C      -0.030588   0.064800  -0.021675
     2     H       0.222405  -0.463947   0.033736
     3     H       0.117427  -0.465404   0.196640
     4     H       0.292633  -0.374077   0.200070
     5     H      -0.129071   0.241880  -0.071846
     6     H      -0.139190   0.289983  -0.100517
 
 Mode:    11      Frequency (cm-1):     1190.7601     Intensity (km/mol):        2.0409
 Index  Atom      ---- Displacements (x/y/z) ----
     1     C       0.052683   0.020660  -0.013381
     2     H      -0.093639   0.047108  -0.017767
     3     H       0.101271  -0.267362   0.075625
     4     H      -0.130943   0.187913  -0.036477
     5     H      -0.778967  -0.319726   0.208023
     6     H       0.274990   0.106077  -0.070083
 
 Mode:    12      Frequency (cm-1):     1192.0767     Intensity (km/mol):        2.1112
 Index  Atom      ---- Displacements (x/y/z) ----
     1     C      -0.005699  -0.021108  -0.054513
     2     H      -0.117877   0.275827  -0.068126
     3     H       0.053120  -0.042298   0.080279
     4     H       0.072866  -0.178732   0.109443
     5     H       0.089185   0.307819   0.805297
     6     H      -0.029435  -0.111292  -0.277819
 
 Mode:    13      Frequency (cm-1):     1462.3542     Intensity (km/mol):       11.0223
 Index  Atom      ---- Displacements (x/y/z) ----
     1     C      -0.013442  -0.031084  -0.074220
     2     H       0.317028  -0.074647  -0.039810
     3     H       0.261796   0.372451   0.618071
     4     H      -0.406453   0.090140   0.347496
     5     H      -0.011218  -0.018880  -0.042937
     6     H      -0.001100   0.001052   0.000905
 
 Mode:    14      Frequency (cm-1):     1466.2186     Intensity (km/mol):       10.7928
 Index  Atom      ---- Displacements (x/y/z) ----
     1     C       0.073260   0.027179  -0.024951
     2     H      -0.634418  -0.388636  -0.014482
     3     H      -0.048778   0.125906  -0.230076
     4     H      -0.228077  -0.072166   0.556078
     5     H       0.038911   0.013785  -0.014513
     6     H       0.000066  -0.002506   0.000076
 
 Mode:    15      Frequency (cm-1):     1905.5543     Intensity (km/mol):       29.0775
 Index  Atom      ---- Displacements (x/y/z) ----
     1     C       0.033554  -0.067968   0.022442
     2     H      -0.047462   0.095304   0.013932
     3     H      -0.005207   0.095066  -0.048936
     4     H      -0.072474   0.062563  -0.048565
     5     H       0.121734  -0.248095   0.084196
     6     H      -0.396110   0.804449  -0.267836
 
 Mode:    16      Frequency (cm-1):     3052.8548     Intensity (km/mol):        0.9306
 Index  Atom      ---- Displacements (x/y/z) ----
     1     C      -0.012637   0.023931  -0.007932
     2     H      -0.024453   0.047954   0.573125
     3     H       0.529614   0.047587  -0.242148
     4     H      -0.353968  -0.380494  -0.236864
     5     H      -0.005373   0.009923  -0.003211
     6     H       0.004640  -0.009913   0.003544
 
 Mode:    17      Frequency (cm-1):     3206.2537     Intensity (km/mol):        4.9136
 Index  Atom      ---- Displacements (x/y/z) ----
     1     C      -0.085424  -0.031401   0.032947
     2     H      -0.008985  -0.026418  -0.293548
     3     H       0.725763   0.044344  -0.324012
     4     H       0.303635   0.356958   0.224390
     5     H      -0.004964  -0.001977   0.001691
     6     H       0.001682   0.000984  -0.000815
 
 Mode:    18      Frequency (cm-1):     3208.4087     Intensity (km/mol):        4.8756
 Index  Atom      ---- Displacements (x/y/z) ----
     1     C      -0.019440  -0.038300  -0.086831
     2     H      -0.029244   0.041538   0.756660
     3     H      -0.127028  -0.017130   0.035056
     4     H       0.388121   0.432953   0.244385
     5     H      -0.000988  -0.002005  -0.004538
     6     H       0.000606   0.000674   0.002317

 Vibrational polarizability tensor (a.u.):
                  X                   Y                   Z
 X               3.13669            -2.66271             0.92456
 Y              -2.66271             7.20858            -1.78579
 Z               0.92456            -1.78579             2.42542

 Isotropic =      4.2569    atomic units

PES point character: Geometry corresponds to a transition state.
                     (Note: Very small imaginary frequencies do not count towards a
                     transition state, as they usually indicate noise on a very flat PES. See
                     the PESPointCharacter%NegativeEigenvalueTolerance keyword documentation.)




 ============================
 Statistical Thermal Analysis  ***  ideal gas assumed  ***
 ============================
  
 Pressure:                  1.000000 atm.
 Temperature:             298.150000 K



 Moments of Inertia [amu*bohr^2] and principal axis
 ==================================================

          12.0821         31.0053         31.0099
 ------------------------------------------------
          -0.4235          0.3047         -0.8531
           0.8599          0.4314         -0.2728
          -0.2849          0.8491          0.4447


 The rotational contribution to the molecular entropy includes
 a term, dependent on the symmetry number sigma. The results 
 reported below were computed using sigma = 1, determined from
 the point group symmetry of the input geometry (NOSYM). 
 If this is not the correct symmetry, try symmetrizing the molecule before
 running the calculation (note: linear molecules should be aligned along one
 of the Cartesian axes).
 Contributions from frequencies below 20 1/cm are not included in vibrational sums.
 Their contributions, if any, are reported separately.


     Temp                                                        Transl      Rotat     Vibrat     Total
     ----                                                        ------      -----     ------     -----

     298.15   Entropy (cal/mol-K):                               34.443     17.103      1.150     52.696
              Nuclear Internal Energy (kcal/mol):                 0.889      0.889     27.380     29.158
              Constant Volume Heat Capacity (cal/mol-K):          2.981      2.981      3.022      8.984
          (c) Constant Volume Heat Capacity (cal/mol-K):          2.981      2.981      3.022      8.984

       Summary of energy terms
                                                   hartree              eV         kcal/mol           kJ/mol
                                      --------------------     -----------       ----------      -----------
      Energy from Engine:               -1.010093390987763        -27.4860          -633.84         -2652.00
      Nuclear Internal Energy:           0.046466063316360          1.2644            29.16           122.00
  (c) Nuclear Internal Energy:           0.046463708771613          1.2643            29.16           121.99
      Internal Energy U:                -0.963627327671403        -26.2216          -604.69         -2530.00
      pV/n = RT:                         0.000944186013486          0.0257             0.59             2.48
      Enthalpy H:                       -0.962683141657917        -26.1959          -604.09         -2527.52
      -T*S:                             -0.025037698316082         -0.6813           -15.71           -65.74
  (c) -T*S:                             -0.025038260094377         -0.6813           -15.71           -65.74
      Gibbs free energy:                -0.987720839973999        -26.8773          -619.80         -2593.26
 
 
 
  (c) The properties marked with this symbol have been corrected using 'low vibrational frequency free rotor
      interpolation corrections'. For those terms all positive frequencies are used (also ones below 20 1/cm),
      but the contribution to the partition function of small vibrational frequencies is modified as described
      in the following paper:
      S. Grimme, 'Supramolecular Binding Thermodynamics by Dispersion-Corrected Density Functional Theory'
      (Chem. Eur. J. 2012, 18, 9955-9964)
      Configuration: Dampener Frequency          :   100.000 1/cm
                     Dampener Alpha              :     4.000
                     Averaging Moment of Inertia : 1.000E-44 kg m2

--------------
Atomic charges
--------------
  Index   Atom    Charge
      1      C   -0.6743
      2      H    0.2247
      3      H    0.2241
      4      H    0.2246
      5      H   -0.0024
      6      H    0.0032


Dipole moment vector    (Debye):     0.27732853   -0.56556847    0.18762627
              magnitude (Debye):     0.65725370


-----------------------
Molecular orbitals info
-----------------------
n orbitals:               20
n spin:                    2

Note: only printing virtual orbitals with
      energy smaller than HOMO + 100. eV

                     spin-alpha   spin-beta
HOMO (eV):              -6.0631    -11.3524
LUMO (eV):               1.3680     -2.4528
HOMO-LUMO gap (eV):      7.4311      8.8996

Smallest gap (eV):       3.6102

          |======= spin-alpha =======|       |======= spin-beta ========|

   Index   Energy (eV)    Occupation          Energy (eV)    Occupation
      19       35.2535         0.000              35.8035         0.000       
      18       29.5325         0.000              29.8633         0.000       
      17       25.1482         0.000              25.3601         0.000       
      16       25.1427         0.000              25.3559         0.000       
      15       22.0857         0.000              22.8111         0.000       
      14       14.5213         0.000              15.5728         0.000       
      13       11.8546         0.000              13.0291         0.000       
      12       11.6278         0.000              11.6638         0.000       
      11       11.6186         0.000              11.6561         0.000       
      10        4.7102         0.000               5.3235         0.000       
       9        3.9991         0.000               4.1689         0.000       
       8        3.9971         0.000               4.1679         0.000       
       7        1.3680         0.000 < LUMO        1.5558         0.000       
       6       -6.0631         1.000 < HOMO       -2.4528         0.000 < LUMO
       5      -11.6801         1.000             -11.3524         1.000 < HOMO
       4      -11.6823         1.000             -11.4628         1.000       
       3      -12.4692         1.000             -11.4651         1.000       
       2      -19.5048         1.000             -18.7600         1.000       
       1     -277.6431         1.000            -277.3566         1.000       

Final PES point is a transition state. Transition state search successful!


AMS application finished. Exiting.
NORMAL TERMINATION
     Total cpu time:     227.83
  Total system time:     105.40
 Total elapsed time:     369.41
