total 12
drwxrwxr-x 2 henon henon 4096 14 avril 13:06 .
drwxrwxr-x 3 henon henon 4096 14 avril 13:06 ..
-rw-r--r-- 1 henon henon  267 14 avril 13:06 rev1.inp
-rw-rw-r-- 1 henon henon    0 14 avril 13:06 rev1.out
 Entering Gaussian System, Link 0=g09
 Initial command:
 /home/projets/algogen/g09.D01/g09/l1.exe "/scratch_l/henon/rev1_24688/Gau-24706.inp" -scrdir="/scratch_l/henon/rev1_24688/"
 Entering Link 1 = /home/projets/algogen/g09.D01/g09/l1.exe PID=     24707.
  
 Copyright (c) 1988,1990,1992,1993,1995,1998,2003,2009,2013,
            Gaussian, Inc.  All Rights Reserved.
  
 This is part of the Gaussian(R) 09 program.  It is based on
 the Gaussian(R) 03 system (copyright 2003, Gaussian, Inc.),
 the Gaussian(R) 98 system (copyright 1998, Gaussian, Inc.),
 the Gaussian(R) 94 system (copyright 1995, Gaussian, Inc.),
 the Gaussian 92(TM) system (copyright 1992, Gaussian, Inc.),
 the Gaussian 90(TM) system (copyright 1990, Gaussian, Inc.),
 the Gaussian 88(TM) system (copyright 1988, Gaussian, Inc.),
 the Gaussian 86(TM) system (copyright 1986, Carnegie Mellon
 University), and the Gaussian 82(TM) system (copyright 1983,
 Carnegie Mellon University). Gaussian is a federally registered
 trademark of Gaussian, Inc.
  
 This software contains proprietary and confidential information,
 including trade secrets, belonging to Gaussian, Inc.
  
 This software is provided under written license and may be
 used, copied, transmitted, or stored only in accord with that
 written license.
  
 The following legend is applicable only to US Government
 contracts under FAR:
  
                    RESTRICTED RIGHTS LEGEND
  
 Use, reproduction and disclosure by the US Government is
 subject to restrictions as set forth in subparagraphs (a)
 and (c) of the Commercial Computer Software - Restricted
 Rights clause in FAR 52.227-19.
  
 Gaussian, Inc.
 340 Quinnipiac St., Bldg. 40, Wallingford CT 06492
  
  
 ---------------------------------------------------------------
 Warning -- This program may not be used in any manner that
 competes with the business of Gaussian, Inc. or will provide
 assistance to any competitor of Gaussian, Inc.  The licensee
 of this program is prohibited from giving any competitor of
 Gaussian, Inc. access to this program.  By using this program,
 the user acknowledges that Gaussian, Inc. is engaged in the
 business of creating and licensing software in the field of
 computational chemistry and represents and warrants to the
 licensee that it is not a competitor of Gaussian, Inc. and that
 it will not use this program in any manner prohibited above.
 ---------------------------------------------------------------
  

 Cite this work as:
 Gaussian 09, Revision D.01,
 M. J. Frisch, G. W. Trucks, H. B. Schlegel, G. E. Scuseria, 
 M. A. Robb, J. R. Cheeseman, G. Scalmani, V. Barone, B. Mennucci, 
 G. A. Petersson, H. Nakatsuji, M. Caricato, X. Li, H. P. Hratchian, 
 A. F. Izmaylov, J. Bloino, G. Zheng, J. L. Sonnenberg, M. Hada, 
 M. Ehara, K. Toyota, R. Fukuda, J. Hasegawa, M. Ishida, T. Nakajima, 
 Y. Honda, O. Kitao, H. Nakai, T. Vreven, J. A. Montgomery, Jr., 
 J. E. Peralta, F. Ogliaro, M. Bearpark, J. J. Heyd, E. Brothers, 
 K. N. Kudin, V. N. Staroverov, T. Keith, R. Kobayashi, J. Normand, 
 K. Raghavachari, A. Rendell, J. C. Burant, S. S. Iyengar, J. Tomasi, 
 M. Cossi, N. Rega, J. M. Millam, M. Klene, J. E. Knox, J. B. Cross, 
 V. Bakken, C. Adamo, J. Jaramillo, R. Gomperts, R. E. Stratmann, 
 O. Yazyev, A. J. Austin, R. Cammi, C. Pomelli, J. W. Ochterski, 
 R. L. Martin, K. Morokuma, V. G. Zakrzewski, G. A. Voth, 
 P. Salvador, J. J. Dannenberg, S. Dapprich, A. D. Daniels, 
 O. Farkas, J. B. Foresman, J. V. Ortiz, J. Cioslowski, 
 and D. J. Fox, Gaussian, Inc., Wallingford CT, 2013.
 
 ******************************************
 Gaussian 09:  ES64L-G09RevD.01 24-Apr-2013
                14-Apr-2016 
 ******************************************
 %NPROC=1
 Will use up to    1 processors via shared memory.
 %MEM=800MB
 ----------------------------------------------------
 #P B3LYP 6-311G** FREQ # POP=full GFINPUT IOP(6/7=3)
 ----------------------------------------------------
 1/10=4,30=1,38=1/1,3;
 2/12=2,17=6,18=5,40=1/2;
 3/5=4,6=6,7=101,11=2,16=1,24=10,25=1,30=1,71=2,74=-5,140=1/1,2,3;
 4//1;
 5/5=2,38=5,98=1/2;
 8/6=4,10=90,11=11/1;
 11/6=1,8=1,9=11,15=111,16=1/1,2,10;
 10/6=1/2;
 6/7=3,18=1,28=1/1;
 7/8=1,10=1,25=1/1,2,3,16;
 1/10=4,30=1/3;
 99//99;
 Leave Link    1 at Thu Apr 14 13:06:37 2016, MaxMem=   104857600 cpu:         0.0
 (Enter /home/projets/algogen/g09.D01/g09/l101.exe)
 ---------------
 point 1 reverse
 ---------------
 Symbolic Z-matrix:
 Charge =  0 Multiplicity = 1
 6                    -0.03995   0.       -0.62588 
 7                    -0.04445   0.        0.55687 
 1                     1.09326   0.       -0.28511 
 
 NAtoms=      3 NQM=        3 NQMF=       0 NMMI=      0 NMMIF=      0
                NMic=       0 NMicF=      0.
                    Isotopes and Nuclear Properties:
 (Nuclear quadrupole moments (NQMom) in fm**2, nuclear magnetic moments (NMagM)
  in nuclear magnetons)

  Atom         1           2           3
 IAtWgt=          12          14           1
 AtmWgt=  12.0000000  14.0030740   1.0078250
 NucSpn=           0           2           1
 AtZEff=   0.0000000   0.0000000   0.0000000
 NQMom=    0.0000000   2.0440000   0.0000000
 NMagM=    0.0000000   0.4037610   2.7928460
 AtZNuc=   6.0000000   7.0000000   1.0000000
 Leave Link  101 at Thu Apr 14 13:06:37 2016, MaxMem=   104857600 cpu:         0.1
 (Enter /home/projets/algogen/g09.D01/g09/l103.exe)

 GradGradGradGradGradGradGradGradGradGradGradGradGradGradGradGradGradGrad
 Berny optimization.
 Initialization pass.
 Trust Radius=3.00D-01 FncErr=1.00D-07 GrdErr=1.00D-07
 Number of steps in this run=      2 maximum allowed number of steps=      2.
 GradGradGradGradGradGradGradGradGradGradGradGradGradGradGradGradGradGrad

 Leave Link  103 at Thu Apr 14 13:06:37 2016, MaxMem=   104857600 cpu:         0.0
 (Enter /home/projets/algogen/g09.D01/g09/l202.exe)
                          Input orientation:                          
 ---------------------------------------------------------------------
 Center     Atomic      Atomic             Coordinates (Angstroms)
 Number     Number       Type             X           Y           Z
 ---------------------------------------------------------------------
      1          6           0       -0.039945    0.000000   -0.625881
      2          7           0       -0.044452    0.000000    0.556872
      3          1           0        1.093256    0.000000   -0.285109
 ---------------------------------------------------------------------
                    Distance matrix (angstroms):
                    1          2          3
     1  C    0.000000
     2  N    1.182762   0.000000
     3  H    1.183330   1.415384   0.000000
 Stoichiometry    CHN
 Framework group  CS[SG(CHN)]
 Deg. of freedom     3
 Full point group                 CS      NOp   2
 Largest Abelian subgroup         CS      NOp   2
 Largest concise Abelian subgroup C1      NOp   1
                         Standard orientation:                         
 ---------------------------------------------------------------------
 Center     Atomic      Atomic             Coordinates (Angstroms)
 Number     Number       Type             X           Y           Z
 ---------------------------------------------------------------------
      1          6           0        0.081035    0.615413    0.000000
      2          7           0        0.081035   -0.567349    0.000000
      3          1           0       -1.053456    0.278962    0.000000
 ---------------------------------------------------------------------
 Rotational constants (GHZ):    409.2523864     55.2835176     48.7043333
 Leave Link  202 at Thu Apr 14 13:06:37 2016, MaxMem=   104857600 cpu:         0.0
 (Enter /home/projets/algogen/g09.D01/g09/l301.exe)
 Standard basis: 6-311G(d,p) (5D, 7F)
 Ernie: Thresh=  0.10000D-02 Tol=  0.10000D-05 Strict=F.
 AO basis set in the form of general basis input (Overlap normalization):
      1 0
 S   6 1.00       0.000000000000
      0.4563240000D+04  0.1966650249D-02
      0.6820240000D+03  0.1523060193D-01
      0.1549730000D+03  0.7612690966D-01
      0.4445530000D+02  0.2608010331D+00
      0.1302900000D+02  0.6164620782D+00
      0.1827730000D+01  0.2210060280D+00
 SP   3 1.00       0.000000000000
      0.2096420000D+02  0.1146600807D+00  0.4024869267D-01
      0.4803310000D+01  0.9199996477D+00  0.2375939567D+00
      0.1459330000D+01 -0.3030682134D-02  0.8158538515D+00
 SP   1 1.00       0.000000000000
      0.4834560000D+00  0.1000000000D+01  0.1000000000D+01
 SP   1 1.00       0.000000000000
      0.1455850000D+00  0.1000000000D+01  0.1000000000D+01
 D   1 1.00       0.000000000000
      0.6260000000D+00  0.1000000000D+01
 ****
      2 0
 S   6 1.00       0.000000000000
      0.6293480000D+04  0.1969788147D-02
      0.9490440000D+03  0.1496128592D-01
      0.2187760000D+03  0.7350053084D-01
      0.6369160000D+02  0.2489367658D+00
      0.1882820000D+02  0.6024594331D+00
      0.2720230000D+01  0.2562017589D+00
 SP   3 1.00       0.000000000000
      0.3063310000D+02  0.1119060795D+00  0.3831191864D-01
      0.7026140000D+01  0.9216666549D+00  0.2374031155D+00
      0.2112050000D+01 -0.2569191826D-02  0.8175923978D+00
 SP   1 1.00       0.000000000000
      0.6840090000D+00  0.1000000000D+01  0.1000000000D+01
 SP   1 1.00       0.000000000000
      0.2008780000D+00  0.1000000000D+01  0.1000000000D+01
 D   1 1.00       0.000000000000
      0.9130000000D+00  0.1000000000D+01
 ****
      3 0
 S   3 1.00       0.000000000000
      0.3386500000D+02  0.2549381454D-01
      0.5094790000D+01  0.1903731086D+00
      0.1158790000D+01  0.8521614860D+00
 S   1 1.00       0.000000000000
      0.3258400000D+00  0.1000000000D+01
 S   1 1.00       0.000000000000
      0.1027410000D+00  0.1000000000D+01
 P   1 1.00       0.000000000000
      0.7500000000D+00  0.1000000000D+01
 ****

 There are    33 symmetry adapted cartesian basis functions of A'  symmetry.
 There are    11 symmetry adapted cartesian basis functions of A"  symmetry.
 There are    31 symmetry adapted basis functions of A'  symmetry.
 There are    11 symmetry adapted basis functions of A"  symmetry.
    42 basis functions,    72 primitive gaussians,    44 cartesian basis functions
     7 alpha electrons        7 beta electrons
       nuclear repulsion energy        24.0914307695 Hartrees.
 IExCor=  402 DFT=T Ex+Corr=B3LYP ExCW=0 ScaHFX=  0.200000
 ScaDFX=  0.800000  0.720000  1.000000  0.810000 ScalE2=  1.000000  1.000000
 IRadAn=      0 IRanWt=     -1 IRanGd=            0 ICorTp=0 IEmpDi=  4
 NAtoms=    3 NActive=    3 NUniq=    3 SFac= 1.00D+00 NAtFMM=   60 NAOKFM=F Big=F
 Integral buffers will be    131072 words long.
 Raffenetti 2 integral format.
 Two-electron integral symmetry is turned on.
 Leave Link  301 at Thu Apr 14 13:06:37 2016, MaxMem=   104857600 cpu:         0.0
 (Enter /home/projets/algogen/g09.D01/g09/l302.exe)
 NPDir=0 NMtPBC=     1 NCelOv=     1 NCel=       1 NClECP=     1 NCelD=      1
         NCelK=      1 NCelE2=     1 NClLst=     1 CellRange=     0.0.
 One-electron integrals computed using PRISM.
 NBasis=    42 RedAO= T EigKep=  8.62D-03  NBF=    31    11
 NBsUse=    42 1.00D-06 EigRej= -1.00D+00 NBFU=    31    11
 Precomputing XC quadrature grid using
 IXCGrd= 4 IRadAn=           0 IRanWt=          -1 IRanGd=           0 AccXCQ= 0.00D+00.
 Generated NRdTot=       0 NPtTot=           0 NUsed=           0 NTot=          32
 NSgBfM=    44    44    44    44    44 MxSgAt=     3 MxSgA2=     3.
 Leave Link  302 at Thu Apr 14 13:06:37 2016, MaxMem=   104857600 cpu:         0.1
 (Enter /home/projets/algogen/g09.D01/g09/l303.exe)
 DipDrv:  MaxL=1.
 Leave Link  303 at Thu Apr 14 13:06:37 2016, MaxMem=   104857600 cpu:         0.0
 (Enter /home/projets/algogen/g09.D01/g09/l401.exe)
 ExpMin= 1.03D-01 ExpMax= 6.29D+03 ExpMxC= 9.49D+02 IAcc=1 IRadAn=         1 AccDes= 0.00D+00
 Harris functional with IExCor=  402 and IRadAn=       1 diagonalized for initial guess.
 HarFok:  IExCor=  402 AccDes= 0.00D+00 IRadAn=         1 IDoV= 1 UseB2=F ITyADJ=14
 ICtDFT=  3500011 ScaDFX=  1.000000  1.000000  1.000000  1.000000
 FoFCou: FMM=F IPFlag=           0 FMFlag=      100000 FMFlg1=           0
         NFxFlg=           0 DoJE=T BraDBF=F KetDBF=T FulRan=T
         wScrn=  0.000000 ICntrl=     500 IOpCl=  0 I1Cent=   200000004 NGrid=           0
         NMat0=    1 NMatS0=      1 NMatT0=    0 NMatD0=    1 NMtDS0=    0 NMtDT0=    0
 Petite list used in FoFCou.
 Harris En= -93.3720191543234    
 JPrj=0 DoOrth=F DoCkMO=F.
 Initial guess orbital symmetries:
       Occupied  (A') (A') (A') (A') (A') (A") (A')
       Virtual   (A') (A") (A') (A') (A') (A") (A') (A') (A') (A')
                 (A") (A') (A") (A') (A') (A") (A') (A') (A") (A')
                 (A") (A') (A') (A') (A") (A') (A") (A') (A') (A')
                 (A") (A') (A') (A') (A')
 The electronic state of the initial guess is 1-A'.
 Leave Link  401 at Thu Apr 14 13:06:37 2016, MaxMem=   104857600 cpu:         0.1
 (Enter /home/projets/algogen/g09.D01/g09/l502.exe)
 Closed shell SCF:
 Using DIIS extrapolation, IDIIS=  1040.
 Integral symmetry usage will be decided dynamically.
 Keep R1 ints in memory in symmetry-blocked form, NReq=1300126.
 IVT=       24966 IEndB=       24966 NGot=   104857600 MDV=   104613769
 LenX=   104613769 LenY=   104611392
 Requested convergence on RMS density matrix=1.00D-08 within 128 cycles.
 Requested convergence on MAX density matrix=1.00D-06.
 Requested convergence on             energy=1.00D-06.
 No special actions if energy rises.
 FoFCou: FMM=F IPFlag=           0 FMFlag=           0 FMFlg1=           0
         NFxFlg=           0 DoJE=F BraDBF=F KetDBF=F FulRan=T
         wScrn=  0.000000 ICntrl=     600 IOpCl=  0 I1Cent=           0 NGrid=           0
         NMat0=    1 NMatS0=    903 NMatT0=    0 NMatD0=    1 NMtDS0=    0 NMtDT0=    0
 Petite list used in FoFCou.
 Integral accuracy reduced to 1.0D-05 until final iterations.

 Cycle   1  Pass 0  IDiag  1:
 E= -93.3486683099308    
 DIIS: error= 2.65D-02 at cycle   1 NSaved=   1.
 NSaved= 1 IEnMin= 1 EnMin= -93.3486683099308     IErMin= 1 ErrMin= 2.65D-02
 ErrMax= 2.65D-02  0.00D+00 EMaxC= 1.00D-01 BMatC= 3.14D-02 BMatP= 3.14D-02
 IDIUse=3 WtCom= 7.35D-01 WtEn= 2.65D-01
 Coeff-Com:  0.100D+01
 Coeff-En:   0.100D+01
 Coeff:      0.100D+01
 Gap=     0.268 Goal=   None    Shift=    0.000
 GapD=    0.268 DampG=1.000 DampE=0.500 DampFc=0.5000 IDamp=-1.
 Damping current iteration by 5.00D-01
 RMSDP=5.78D-03 MaxDP=8.33D-02              OVMax= 1.07D-01

 Cycle   2  Pass 0  IDiag  1:
 E= -93.3625024399970     Delta-E=       -0.013834130066 Rises=F Damp=T
 DIIS: error= 4.59D-03 at cycle   2 NSaved=   2.
 NSaved= 2 IEnMin= 2 EnMin= -93.3625024399970     IErMin= 2 ErrMin= 4.59D-03
 ErrMax= 4.59D-03  0.00D+00 EMaxC= 1.00D-01 BMatC= 1.61D-03 BMatP= 3.14D-02
 IDIUse=3 WtCom= 9.54D-01 WtEn= 4.59D-02
 Coeff-Com: -0.141D+00 0.114D+01
 Coeff-En:   0.000D+00 0.100D+01
 Coeff:     -0.135D+00 0.113D+01
 Gap=     0.279 Goal=   None    Shift=    0.000
 RMSDP=7.47D-04 MaxDP=6.17D-03 DE=-1.38D-02 OVMax= 5.44D-02

 Cycle   3  Pass 0  IDiag  1:
 E= -93.3751060651283     Delta-E=       -0.012603625131 Rises=F Damp=F
 DIIS: error= 2.97D-03 at cycle   3 NSaved=   3.
 NSaved= 3 IEnMin= 3 EnMin= -93.3751060651283     IErMin= 3 ErrMin= 2.97D-03
 ErrMax= 2.97D-03  0.00D+00 EMaxC= 1.00D-01 BMatC= 2.75D-04 BMatP= 1.61D-03
 IDIUse=3 WtCom= 9.70D-01 WtEn= 2.97D-02
 Coeff-Com: -0.830D-01 0.291D+00 0.792D+00
 Coeff-En:   0.000D+00 0.000D+00 0.100D+01
 Coeff:     -0.805D-01 0.282D+00 0.798D+00
 Gap=     0.278 Goal=   None    Shift=    0.000
 RMSDP=3.96D-04 MaxDP=4.16D-03 DE=-1.26D-02 OVMax= 1.02D-02

 Cycle   4  Pass 0  IDiag  1:
 E= -93.3750488929485     Delta-E=        0.000057172180 Rises=F Damp=F
 DIIS: error= 4.79D-03 at cycle   4 NSaved=   4.
 NSaved= 4 IEnMin= 3 EnMin= -93.3751060651283     IErMin= 3 ErrMin= 2.97D-03
 ErrMax= 4.79D-03  0.00D+00 EMaxC= 1.00D-01 BMatC= 3.57D-04 BMatP= 2.75D-04
 IDIUse=3 WtCom= 1.26D-01 WtEn= 8.74D-01
 Coeff-Com: -0.478D-01 0.117D+00 0.578D+00 0.353D+00
 Coeff-En:   0.000D+00 0.000D+00 0.546D+00 0.454D+00
 Coeff:     -0.603D-02 0.147D-01 0.550D+00 0.441D+00
 Gap=     0.274 Goal=   None    Shift=    0.000
 RMSDP=3.43D-04 MaxDP=4.62D-03 DE= 5.72D-05 OVMax= 8.74D-03

 Cycle   5  Pass 0  IDiag  1:
 E= -93.3753033782791     Delta-E=       -0.000254485331 Rises=F Damp=F
 DIIS: error= 1.28D-03 at cycle   5 NSaved=   5.
 NSaved= 5 IEnMin= 5 EnMin= -93.3753033782791     IErMin= 5 ErrMin= 1.28D-03
 ErrMax= 1.28D-03  0.00D+00 EMaxC= 1.00D-01 BMatC= 5.81D-05 BMatP= 2.75D-04
 IDIUse=3 WtCom= 9.87D-01 WtEn= 1.28D-02
 Coeff-Com: -0.302D-02 0.313D-02 0.239D+00 0.285D+00 0.476D+00
 Coeff-En:   0.000D+00 0.000D+00 0.000D+00 0.175D+00 0.825D+00
 Coeff:     -0.298D-02 0.309D-02 0.236D+00 0.284D+00 0.480D+00
 Gap=     0.276 Goal=   None    Shift=    0.000
 RMSDP=1.42D-04 MaxDP=1.87D-03 DE=-2.54D-04 OVMax= 2.69D-03

 Cycle   6  Pass 0  IDiag  1:
 E= -93.3753619100853     Delta-E=       -0.000058531806 Rises=F Damp=F
 DIIS: error= 4.00D-05 at cycle   6 NSaved=   6.
 NSaved= 6 IEnMin= 6 EnMin= -93.3753619100853     IErMin= 6 ErrMin= 4.00D-05
 ErrMax= 4.00D-05  0.00D+00 EMaxC= 1.00D-01 BMatC= 5.66D-08 BMatP= 5.81D-05
 IDIUse=1 WtCom= 1.00D+00 WtEn= 0.00D+00
 Coeff-Com:  0.214D-02-0.481D-02-0.205D-02 0.153D-01 0.639D-01 0.926D+00
 Coeff:      0.214D-02-0.481D-02-0.205D-02 0.153D-01 0.639D-01 0.926D+00
 Gap=     0.276 Goal=   None    Shift=    0.000
 RMSDP=5.94D-06 MaxDP=1.05D-04 DE=-5.85D-05 OVMax= 1.05D-04

 Initial convergence to 1.0D-05 achieved.  Increase integral accuracy.
 Cycle   7  Pass 1  IDiag  1:
 E= -93.3753581143010     Delta-E=        0.000003795784 Rises=F Damp=F
 DIIS: error= 4.83D-06 at cycle   1 NSaved=   1.
 NSaved= 1 IEnMin= 1 EnMin= -93.3753581143010     IErMin= 1 ErrMin= 4.83D-06
 ErrMax= 4.83D-06  0.00D+00 EMaxC= 1.00D-01 BMatC= 1.41D-09 BMatP= 1.41D-09
 IDIUse=1 WtCom= 1.00D+00 WtEn= 0.00D+00
 Coeff-Com:  0.100D+01
 Coeff:      0.100D+01
 Gap=     0.276 Goal=   None    Shift=    0.000
 RMSDP=5.94D-06 MaxDP=1.05D-04 DE= 3.80D-06 OVMax= 2.43D-05

 Cycle   8  Pass 1  IDiag  1:
 E= -93.3753581152506     Delta-E=       -0.000000000950 Rises=F Damp=F
 DIIS: error= 4.10D-06 at cycle   2 NSaved=   2.
 NSaved= 2 IEnMin= 2 EnMin= -93.3753581152506     IErMin= 2 ErrMin= 4.10D-06
 ErrMax= 4.10D-06  0.00D+00 EMaxC= 1.00D-01 BMatC= 4.91D-10 BMatP= 1.41D-09
 IDIUse=1 WtCom= 1.00D+00 WtEn= 0.00D+00
 Coeff-Com:  0.332D+00 0.668D+00
 Coeff:      0.332D+00 0.668D+00
 Gap=     0.276 Goal=   None    Shift=    0.000
 RMSDP=5.33D-07 MaxDP=6.16D-06 DE=-9.50D-10 OVMax= 1.31D-05

 Cycle   9  Pass 1  IDiag  1:
 E= -93.3753581151362     Delta-E=        0.000000000114 Rises=F Damp=F
 DIIS: error= 6.40D-06 at cycle   3 NSaved=   3.
 NSaved= 3 IEnMin= 2 EnMin= -93.3753581152506     IErMin= 2 ErrMin= 4.10D-06
 ErrMax= 6.40D-06  0.00D+00 EMaxC= 1.00D-01 BMatC= 6.03D-10 BMatP= 4.91D-10
 IDIUse=1 WtCom= 1.00D+00 WtEn= 0.00D+00
 Coeff-Com:  0.112D+00 0.503D+00 0.385D+00
 Coeff:      0.112D+00 0.503D+00 0.385D+00
 Gap=     0.276 Goal=   None    Shift=    0.000
 RMSDP=3.25D-07 MaxDP=2.95D-06 DE= 1.14D-10 OVMax= 9.91D-06

 Cycle  10  Pass 1  IDiag  1:
 E= -93.3753581156512     Delta-E=       -0.000000000515 Rises=F Damp=F
 DIIS: error= 4.76D-07 at cycle   4 NSaved=   4.
 NSaved= 4 IEnMin= 4 EnMin= -93.3753581156512     IErMin= 4 ErrMin= 4.76D-07
 ErrMax= 4.76D-07  0.00D+00 EMaxC= 1.00D-01 BMatC= 8.57D-12 BMatP= 4.91D-10
 IDIUse=1 WtCom= 1.00D+00 WtEn= 0.00D+00
 Coeff-Com: -0.464D-02 0.611D-01 0.131D+00 0.812D+00
 Coeff:     -0.464D-02 0.611D-01 0.131D+00 0.812D+00
 Gap=     0.276 Goal=   None    Shift=    0.000
 RMSDP=7.54D-08 MaxDP=7.38D-07 DE=-5.15D-10 OVMax= 2.03D-06

 Cycle  11  Pass 1  IDiag  1:
 E= -93.3753581156600     Delta-E=       -0.000000000009 Rises=F Damp=F
 DIIS: error= 1.41D-07 at cycle   5 NSaved=   5.
 NSaved= 5 IEnMin= 5 EnMin= -93.3753581156600     IErMin= 5 ErrMin= 1.41D-07
 ErrMax= 1.41D-07  0.00D+00 EMaxC= 1.00D-01 BMatC= 6.58D-13 BMatP= 8.57D-12
 IDIUse=1 WtCom= 1.00D+00 WtEn= 0.00D+00
 Coeff-Com: -0.883D-02-0.458D-02 0.316D-01 0.349D+00 0.633D+00
 Coeff:     -0.883D-02-0.458D-02 0.316D-01 0.349D+00 0.633D+00
 Gap=     0.276 Goal=   None    Shift=    0.000
 RMSDP=1.72D-08 MaxDP=2.78D-07 DE=-8.78D-12 OVMax= 3.88D-07

 Cycle  12  Pass 1  IDiag  1:
 E= -93.3753581156608     Delta-E=       -0.000000000001 Rises=F Damp=F
 DIIS: error= 1.74D-08 at cycle   6 NSaved=   6.
 NSaved= 6 IEnMin= 6 EnMin= -93.3753581156608     IErMin= 6 ErrMin= 1.74D-08
 ErrMax= 1.74D-08  0.00D+00 EMaxC= 1.00D-01 BMatC= 7.29D-15 BMatP= 6.58D-13
 IDIUse=1 WtCom= 1.00D+00 WtEn= 0.00D+00
 Coeff-Com: -0.151D-03-0.662D-02-0.987D-02-0.381D-01 0.942D-02 0.105D+01
 Coeff:     -0.151D-03-0.662D-02-0.987D-02-0.381D-01 0.942D-02 0.105D+01
 Gap=     0.276 Goal=   None    Shift=    0.000
 RMSDP=3.58D-09 MaxDP=5.01D-08 DE=-8.10D-13 OVMax= 8.46D-08

 SCF Done:  E(RB3LYP) =  -93.3753581157     A.U. after   12 cycles
            NFock= 12  Conv=0.36D-08     -V/T= 2.0032
 KE= 9.307290177889D+01 PE=-2.660063747581D+02 EE= 5.546668409404D+01
 Leave Link  502 at Thu Apr 14 13:06:38 2016, MaxMem=   104857600 cpu:         0.7
 (Enter /home/projets/algogen/g09.D01/g09/l801.exe)
 DoSCS=F DFT=T ScalE2(SS,OS)=  1.000000  1.000000
 Range of M.O.s used for correlation:     1    42
 NBasis=    42 NAE=     7 NBE=     7 NFC=     0 NFV=     0
 NROrb=     42 NOA=     7 NOB=     7 NVA=    35 NVB=    35
 Leave Link  801 at Thu Apr 14 13:06:38 2016, MaxMem=   104857600 cpu:         0.0
 (Enter /home/projets/algogen/g09.D01/g09/l1101.exe)
 Using compressed storage, NAtomX=     3.
 Will process      4 centers per pass.
 Leave Link 1101 at Thu Apr 14 13:06:38 2016, MaxMem=   104857600 cpu:         0.1
 (Enter /home/projets/algogen/g09.D01/g09/l1102.exe)
 Symmetrizing basis deriv contribution to polar:
 IMax=3 JMax=2 DiffMx= 0.00D+00
 Leave Link 1102 at Thu Apr 14 13:06:38 2016, MaxMem=   104857600 cpu:         0.0
 (Enter /home/projets/algogen/g09.D01/g09/l1110.exe)
 Forming Gx(P) for the SCF density, NAtomX=     3.
 Integral derivatives from FoFJK, PRISM(SPDF).
 Do as many integral derivatives as possible in FoFJK.
 G2DrvN: MDV=     104857472.
 G2DrvN: will do     4 centers at a time, making    1 passes.
 Calling FoFCou, ICntrl=  3107 FMM=F I1Cent=   0 AccDes= 0.00D+00.
 FoFJK:  IHMeth= 1 ICntrl=    3107 DoSepK=F KAlg= 0 I1Cent=   0 FoldK=F
 IRaf=         0 NMat=   1 IRICut=       1 DoRegI=T DoRafI=F ISym2E= 1.
 FoFCou: FMM=F IPFlag=           0 FMFlag=      100000 FMFlg1=           0
         NFxFlg=           0 DoJE=F BraDBF=F KetDBF=F FulRan=T
         wScrn=  0.000000 ICntrl=    3107 IOpCl=  0 I1Cent=           0 NGrid=           0
         NMat0=    1 NMatS0=      1 NMatT0=    0 NMatD0=    1 NMtDS0=    0 NMtDT0=    0
 Petite list used in FoFCou.
 End of G2Drv F.D. properties file   721 does not exist.
 End of G2Drv F.D. properties file   722 does not exist.
 End of G2Drv F.D. properties file   788 does not exist.
 Leave Link 1110 at Thu Apr 14 13:06:39 2016, MaxMem=   104857600 cpu:         0.8
 (Enter /home/projets/algogen/g09.D01/g09/l1002.exe)
 Minotr:  Closed shell wavefunction.
          IDoAtm=111
          Direct CPHF calculation.
          Differentiating once with respect to electric field.
                with respect to dipole field.
          Differentiating once with respect to nuclear coordinates.
          Using symmetry in CPHF.
          Requested convergence is 1.0D-08 RMS, and 1.0D-07 maximum.
          Secondary convergence is 1.0D-12 RMS, and 1.0D-12 maximum.
          NewPWx=T KeepS1=F KeepF1=F KeepIn=T MapXYZ=F SortEE=F KeepMc=T.
          MDV=     104857524 using IRadAn=       2.
 Generate precomputed XC quadrature information.
 Keep R1 ints in memory in symmetry-blocked form, NReq=1274720.
 FoFCou: FMM=F IPFlag=           0 FMFlag=           0 FMFlg1=           0
         NFxFlg=           0 DoJE=F BraDBF=F KetDBF=F FulRan=T
         wScrn=  0.000000 ICntrl=     600 IOpCl=  0 I1Cent=           0 NGrid=           0
         NMat0=    1 NMatS0=    903 NMatT0=    0 NMatD0=    1 NMtDS0=    0 NMtDT0=    0
 Petite list used in FoFCou.
          Solving linear equations simultaneously, MaxMat=       0.
          There are    12 degrees of freedom in the 1st order CPHF.  IDoFFX=6 NUNeed=     3.
      9 vectors produced by pass  0 Test12= 2.04D-15 8.33D-09 XBig12= 2.12D+01 2.88D+00.
 AX will form     9 AO Fock derivatives at one time.
      9 vectors produced by pass  1 Test12= 2.04D-15 8.33D-09 XBig12= 1.13D+01 1.28D+00.
      9 vectors produced by pass  2 Test12= 2.04D-15 8.33D-09 XBig12= 6.35D-02 7.95D-02.
      9 vectors produced by pass  3 Test12= 2.04D-15 8.33D-09 XBig12= 1.25D-04 3.43D-03.
      9 vectors produced by pass  4 Test12= 2.04D-15 8.33D-09 XBig12= 1.42D-07 1.07D-04.
      8 vectors produced by pass  5 Test12= 2.04D-15 8.33D-09 XBig12= 2.46D-10 4.47D-06.
      3 vectors produced by pass  6 Test12= 2.04D-15 8.33D-09 XBig12= 2.49D-13 1.40D-07.
 InvSVY:  IOpt=1 It=  1 EMax= 4.44D-16
 Solved reduced A of dimension    56 with     9 vectors.
 FullF1:  Do perturbations    1 to     3.
 Isotropic polarizability for W=    0.000000       14.31 Bohr**3.
 End of Minotr F.D. properties file   721 does not exist.
 End of Minotr F.D. properties file   722 does not exist.
 End of Minotr F.D. properties file   788 does not exist.
 Leave Link 1002 at Thu Apr 14 13:06:40 2016, MaxMem=   104857600 cpu:         1.3
 (Enter /home/projets/algogen/g09.D01/g09/l601.exe)
 Copying SCF densities to generalized density rwf, IOpCl= 0 IROHF=0.

 **********************************************************************

            Population analysis using the SCF density.

 **********************************************************************

 Orbital symmetries:
       Occupied  (A') (A') (A') (A') (A') (A") (A')
       Virtual   (A') (A") (A') (A') (A') (A") (A') (A') (A') (A')
                 (A") (A') (A") (A') (A') (A") (A') (A') (A") (A')
                 (A") (A') (A') (A') (A") (A') (A") (A') (A') (A')
                 (A") (A') (A') (A') (A')
 The electronic state is 1-A'.
 Alpha  occ. eigenvalues --  -14.38517 -10.23438  -0.99415  -0.53248  -0.45546
 Alpha  occ. eigenvalues --   -0.39319  -0.34577
 Alpha virt. eigenvalues --   -0.07005   0.00055   0.03555   0.21637   0.30411
 Alpha virt. eigenvalues --    0.39561   0.40758   0.52684   0.54716   0.63208
 Alpha virt. eigenvalues --    0.63950   0.73136   1.00269   1.02770   1.23115
 Alpha virt. eigenvalues --    1.35784   1.42558   1.58047   1.73891   1.88603
 Alpha virt. eigenvalues --    2.00271   2.13842   2.22549   2.36122   2.43717
 Alpha virt. eigenvalues --    2.68070   2.73820   2.82644   2.98404   3.18973
 Alpha virt. eigenvalues --    3.71919   3.81166   4.31927  23.91972  35.52931
     Molecular Orbital Coefficients:
                           1         2         3         4         5
                           O         O         O         O         O
     Eigenvalues --   -14.38517 -10.23438  -0.99415  -0.53248  -0.45546
   1 1   C  1S         -0.00007   0.56274  -0.07706   0.03672   0.06821
   2        2S          0.00059   0.46348  -0.11666   0.05894   0.10847
   3        2PX         0.00005  -0.00007  -0.01763   0.13439  -0.08536
   4        2PY        -0.00041  -0.00081  -0.10601  -0.05236   0.02510
   5        2PZ         0.00000   0.00000   0.00000   0.00000   0.00000
   6        3S         -0.00182   0.01800   0.29754  -0.16893  -0.31482
   7        3PX        -0.00029  -0.00237  -0.02497   0.19390  -0.12154
   8        3PY         0.00374  -0.00671  -0.12234  -0.06627   0.03864
   9        3PZ         0.00000   0.00000   0.00000   0.00000   0.00000
  10        4S          0.00327   0.00063   0.05549  -0.14432  -0.28354
  11        4PX         0.00017   0.00048  -0.00459   0.09566  -0.04439
  12        4PY        -0.00260  -0.00158   0.00178  -0.03554  -0.01322
  13        4PZ         0.00000   0.00000   0.00000   0.00000   0.00000
  14        5D 0        0.00116  -0.00255  -0.01531   0.00364   0.00112
  15        5D+1        0.00000   0.00000   0.00000   0.00000   0.00000
  16        5D-1        0.00000   0.00000   0.00000   0.00000   0.00000
  17        5D+2        0.00216  -0.00222  -0.01657  -0.02355   0.00729
  18        5D-2       -0.00003   0.00077   0.00761  -0.02778   0.01912
  19 2   N  1S          0.55725  -0.00026  -0.09760  -0.06111  -0.05350
  20        2S          0.46597   0.00020  -0.15347  -0.09787  -0.08597
  21        2PX        -0.00019   0.00006  -0.01223   0.11717  -0.10829
  22        2PY         0.00082   0.00087   0.09585  -0.04312  -0.17815
  23        2PZ         0.00000   0.00000   0.00000   0.00000   0.00000
  24        3S          0.01562  -0.00240   0.41951   0.28425   0.24939
  25        3PX        -0.00001  -0.00007  -0.02071   0.17374  -0.16430
  26        3PY         0.00354  -0.00518   0.12889  -0.05773  -0.24004
  27        3PZ         0.00000   0.00000   0.00000   0.00000   0.00000
  28        4S         -0.00792  -0.00683   0.26435   0.31279   0.36753
  29        4PX         0.00020   0.00008  -0.00890   0.10302  -0.12705
  30        4PY        -0.00230  -0.00270   0.05100  -0.04092  -0.16710
  31        4PZ         0.00000   0.00000   0.00000   0.00000   0.00000
  32        5D 0       -0.00068   0.00107  -0.01364   0.00353   0.00598
  33        5D+1        0.00000   0.00000   0.00000   0.00000   0.00000
  34        5D-1        0.00000   0.00000   0.00000   0.00000   0.00000
  35        5D+2       -0.00127   0.00216  -0.01578  -0.00148   0.02169
  36        5D-2        0.00003   0.00012  -0.00512   0.02134  -0.01610
  37 3   H  1S          0.00035   0.00001   0.06842  -0.15554   0.05177
  38        2S         -0.00047  -0.00276   0.07259  -0.24859   0.09808
  39        3S          0.00065   0.00183  -0.00453  -0.05079   0.07576
  40        4PX        -0.00011  -0.00229   0.01689  -0.02228   0.00481
  41        4PY        -0.00043  -0.00057  -0.00509  -0.00272  -0.01606
  42        4PZ         0.00000   0.00000   0.00000   0.00000   0.00000
                           6         7         8         9        10
                           O         O         V         V         V
     Eigenvalues --    -0.39319  -0.34577  -0.07005   0.00055   0.03555
   1 1   C  1S          0.00000  -0.05036   0.02852   0.00000   0.02679
   2        2S          0.00000  -0.08150   0.04540   0.00000   0.04231
   3        2PX         0.00000   0.03414  -0.10596   0.00000   0.19031
   4        2PY         0.00000   0.21192  -0.04637   0.00000  -0.03466
   5        2PZ         0.17033   0.00000   0.00000   0.22221   0.00000
   6        3S          0.00000   0.22085  -0.12152   0.00000  -0.10388
   7        3PX         0.00000   0.04230  -0.15813   0.00000   0.26258
   8        3PY         0.00000   0.27753  -0.06730   0.00000  -0.02652
   9        3PZ         0.25189   0.00000   0.00000   0.33450   0.00000
  10        4S          0.00000   0.48948  -0.32695   0.00000  -0.96460
  11        4PX         0.00000   0.03853  -0.23809   0.00000   0.81176
  12        4PY         0.00000   0.13828  -0.12270   0.00000   0.00136
  13        4PZ         0.18175   0.00000   0.00000   0.66081   0.00000
  14        5D 0        0.00000   0.00999  -0.00943   0.00000   0.00421
  15        5D+1       -0.00865   0.00000   0.00000  -0.01162   0.00000
  16        5D-1       -0.04455   0.00000   0.00000   0.01784   0.00000
  17        5D+2        0.00000   0.02468   0.01725   0.00000   0.01513
  18        5D-2        0.00000  -0.01836  -0.02663   0.00000  -0.00623
  19 2   N  1S          0.00000  -0.00522   0.00764   0.00000   0.02056
  20        2S          0.00000  -0.00797   0.01197   0.00000   0.03344
  21        2PX         0.00000   0.06961   0.24896   0.00000  -0.03004
  22        2PY         0.00000  -0.17416  -0.00689   0.00000   0.01727
  23        2PZ         0.22790   0.00000   0.00000  -0.21055   0.00000
  24        3S          0.00000   0.02083  -0.02586   0.00000  -0.11050
  25        3PX         0.00000   0.10325   0.35424   0.00000  -0.04361
  26        3PY         0.00000  -0.23775  -0.01588   0.00000   0.03090
  27        3PZ         0.33467   0.00000   0.00000  -0.29046   0.00000
  28        4S          0.00000   0.03915  -0.17705   0.00000  -0.15704
  29        4PX         0.00000   0.10218   0.56461   0.00000  -0.12496
  30        4PY         0.00000  -0.21699  -0.02925   0.00000   0.11414
  31        4PZ         0.27645   0.00000   0.00000  -0.55141   0.00000
  32        5D 0        0.00000   0.01080   0.00002   0.00000  -0.00594
  33        5D+1       -0.00459   0.00000   0.00000   0.00220   0.00000
  34        5D-1        0.03130   0.00000   0.00000   0.01388   0.00000
  35        5D+2        0.00000   0.01658   0.00365   0.00000   0.01059
  36        5D-2        0.00000   0.01069   0.00100   0.00000   0.01734
  37 3   H  1S          0.00000   0.01366   0.12450   0.00000   0.06355
  38        2S          0.00000   0.01488   0.30118   0.00000   0.12051
  39        3S          0.00000   0.08357   0.40360   0.00000   1.59634
  40        4PX         0.00000  -0.00559   0.00018   0.00000  -0.03092
  41        4PY         0.00000   0.01781   0.02720   0.00000  -0.02197
  42        4PZ         0.02257   0.00000   0.00000   0.01832   0.00000
                          11        12        13        14        15
                           V         V         V         V         V
     Eigenvalues --     0.21637   0.30411   0.39561   0.40758   0.52684
   1 1   C  1S         -0.00781  -0.02675   0.00000   0.04221   0.05054
   2        2S         -0.01210  -0.04579   0.00000   0.07574   0.10038
   3        2PX         0.03118  -0.05011   0.00000  -0.19613  -0.05918
   4        2PY         0.00830   0.00544   0.00000  -0.07897   0.12791
   5        2PZ         0.00000   0.00000  -0.22855   0.00000   0.00000
   6        3S         -0.00884   0.04298   0.00000  -0.38483  -0.90904
   7        3PX         0.04122  -0.12182   0.00000  -0.71009  -0.30522
   8        3PY         0.02605  -0.05395   0.00000  -0.41101   0.40940
   9        3PZ         0.00000   0.00000  -0.84014   0.00000   0.00000
  10        4S          1.92872   3.05613   0.00000   0.68547  -0.60904
  11        4PX         0.39275  -0.78650   0.00000   1.06381   0.15968
  12        4PY        -1.44477  -2.21599   0.00000   0.18715  -0.05097
  13        4PZ         0.00000   0.00000   1.12717   0.00000   0.00000
  14        5D 0       -0.01085   0.00816   0.00000  -0.01013  -0.01828
  15        5D+1        0.00000   0.00000   0.00319   0.00000   0.00000
  16        5D-1        0.00000   0.00000   0.04945   0.00000   0.00000
  17        5D+2        0.01390  -0.01992   0.00000  -0.04062  -0.01972
  18        5D-2        0.00784   0.01595   0.00000   0.03333   0.03034
  19 2   N  1S          0.03415   0.03231   0.00000   0.01454  -0.03847
  20        2S          0.05536   0.05251   0.00000   0.02587  -0.06270
  21        2PX        -0.00500  -0.03560   0.00000  -0.03930  -0.01078
  22        2PY        -0.07087   0.00448   0.00000   0.04928  -0.05370
  23        2PZ         0.00000   0.00000  -0.04331   0.00000   0.00000
  24        3S         -0.13263  -0.11247   0.00000  -0.08087   0.13934
  25        3PX         0.00299  -0.03902   0.00000  -0.15396  -0.02385
  26        3PY        -0.10334   0.01833   0.00000   0.08550  -0.38772
  27        3PZ         0.00000   0.00000  -0.15472   0.00000   0.00000
  28        4S         -1.64541  -2.75449   0.00000  -0.55688   0.84258
  29        4PX        -0.11810  -0.01808   0.00000   0.17610  -0.01900
  30        4PY        -0.76360  -1.06543   0.00000  -0.55458   1.79109
  31        4PZ         0.00000   0.00000   0.10609   0.00000   0.00000
  32        5D 0        0.00187   0.03557   0.00000   0.01847   0.03570
  33        5D+1        0.00000   0.00000   0.00058   0.00000   0.00000
  34        5D-1        0.00000   0.00000  -0.03691   0.00000   0.00000
  35        5D+2        0.02776   0.00291   0.00000   0.02558   0.04727
  36        5D-2       -0.00389   0.00789   0.00000  -0.02905  -0.00376
  37 3   H  1S          0.11950  -0.08842   0.00000  -0.04373  -0.02138
  38        2S          0.89697  -1.31813   0.00000  -0.09957  -0.49184
  39        3S         -1.23342   0.16051   0.00000   0.63356   0.28478
  40        4PX         0.02716  -0.02424   0.00000   0.03838  -0.08082
  41        4PY        -0.01694  -0.00054   0.00000  -0.02046  -0.00079
  42        4PZ         0.00000   0.00000  -0.01045   0.00000   0.00000
                          16        17        18        19        20
                           V         V         V         V         V
     Eigenvalues --     0.54716   0.63208   0.63950   0.73136   1.00269
   1 1   C  1S          0.07590  -0.01862   0.00000   0.06639   0.00000
   2        2S          0.14629  -0.03703   0.00000   0.12988   0.00000
   3        2PX         0.16310   0.05646   0.00000   0.02627   0.00000
   4        2PY        -0.10165   0.05915   0.00000   0.23689   0.00000
   5        2PZ         0.00000   0.00000   0.10143   0.00000  -0.05204
   6        3S         -1.17821   0.38093   0.00000  -0.80711   0.00000
   7        3PX         0.41846   0.16614   0.00000   0.03990   0.00000
   8        3PY        -0.66208   0.25608   0.00000   0.63320   0.00000
   9        3PZ         0.00000   0.00000   0.21812   0.00000  -0.05866
  10        4S          3.54725  -1.26283   0.00000   0.59959   0.00000
  11        4PX        -1.37568  -0.29572   0.00000  -0.29569   0.00000
  12        4PY        -0.49355   0.15304   0.00000  -0.18872   0.00000
  13        4PZ         0.00000   0.00000  -0.85325   0.00000  -0.06607
  14        5D 0       -0.04113  -0.01243   0.00000  -0.08357   0.00000
  15        5D+1        0.00000   0.00000  -0.01175   0.00000  -0.56787
  16        5D-1        0.00000   0.00000   0.06735   0.00000  -0.08641
  17        5D+2       -0.01995  -0.02096   0.00000  -0.12261   0.00000
  18        5D-2        0.03926   0.04665   0.00000   0.00280   0.00000
  19 2   N  1S          0.01172  -0.01013   0.00000   0.01089   0.00000
  20        2S          0.02371  -0.02120   0.00000   0.02828   0.00000
  21        2PX        -0.06351  -0.22634   0.00000   0.03444   0.00000
  22        2PY        -0.02200   0.02382   0.00000   0.28106   0.00000
  23        2PZ         0.00000   0.00000  -0.24552   0.00000  -0.00893
  24        3S         -0.10238   0.15156   0.00000  -0.35960   0.00000
  25        3PX        -0.16795  -0.80014   0.00000   0.08526   0.00000
  26        3PY        -0.20589   0.08935   0.00000   0.69799   0.00000
  27        3PZ         0.00000   0.00000  -0.81561   0.00000   0.02096
  28        4S         -1.36389   0.24314   0.00000   0.81448   0.00000
  29        4PX         0.27326   1.53264   0.00000  -0.09499   0.00000
  30        4PY        -0.62103   0.11554   0.00000  -0.22320   0.00000
  31        4PZ         0.00000   0.00000   1.48762   0.00000  -0.10441
  32        5D 0        0.03928  -0.01655   0.00000   0.04050   0.00000
  33        5D+1        0.00000   0.00000  -0.00262   0.00000  -0.17433
  34        5D-1        0.00000   0.00000  -0.01506   0.00000   0.03379
  35        5D+2        0.04841   0.00992   0.00000   0.08961   0.00000
  36        5D-2        0.01796  -0.02772   0.00000  -0.00523   0.00000
  37 3   H  1S          0.06722  -0.04862   0.00000   0.01199   0.00000
  38        2S         -0.13150   0.41527   0.00000   0.11816   0.00000
  39        3S         -1.53291   0.55410   0.00000  -0.66905   0.00000
  40        4PX        -0.11498   0.09700   0.00000  -0.06632   0.00000
  41        4PY        -0.03926  -0.05010   0.00000  -0.11463   0.00000
  42        4PZ         0.00000   0.00000   0.02933   0.00000   0.60777
                          21        22        23        24        25
                           V         V         V         V         V
     Eigenvalues --     1.02770   1.23115   1.35784   1.42558   1.58047
   1 1   C  1S         -0.02254   0.00840   0.00000   0.01968   0.01216
   2        2S         -0.02598   0.02215   0.00000   0.03868   0.02330
   3        2PX        -0.00349  -0.02732   0.00000   0.03238   0.06506
   4        2PY        -0.13026  -0.01749   0.00000   0.03807   0.06156
   5        2PZ         0.00000   0.00000   0.05159   0.00000   0.00000
   6        3S         -0.01554  -0.18335   0.00000  -0.31288  -0.13381
   7        3PX        -0.06488  -0.06034   0.00000   0.18101  -0.02692
   8        3PY         0.34868   0.19889   0.00000  -0.04477   0.18956
   9        3PZ         0.00000   0.00000   0.10102   0.00000   0.00000
  10        4S         -4.30769  -1.27401   0.00000   1.48329  -1.33216
  11        4PX        -0.01663   0.31795   0.00000  -0.58919   0.12394
  12        4PY         2.28113   0.59230   0.00000  -0.71573   0.53505
  13        4PZ         0.00000   0.00000  -0.19654   0.00000   0.00000
  14        5D 0        0.21387  -0.24662   0.00000  -0.69084   0.06405
  15        5D+1        0.00000   0.00000  -0.24728   0.00000   0.00000
  16        5D-1        0.00000   0.00000   0.87237   0.00000   0.00000
  17        5D+2        0.34340   0.26462   0.00000   0.36967   0.16517
  18        5D-2        0.07131  -0.60152   0.00000   0.18062   0.63565
  19 2   N  1S          0.11029   0.01613   0.00000  -0.00956  -0.00187
  20        2S          0.21787   0.03649   0.00000  -0.02134   0.00238
  21        2PX         0.00160  -0.10957   0.00000   0.06214  -0.02205
  22        2PY        -0.12461   0.02759   0.00000  -0.00095   0.06648
  23        2PZ         0.00000   0.00000   0.09145   0.00000   0.00000
  24        3S         -1.79742  -0.43151   0.00000   0.22225  -0.22011
  25        3PX        -0.03362  -0.19714   0.00000   0.10031   0.12230
  26        3PY         0.05303   0.12786   0.00000  -0.00824   0.19519
  27        3PZ         0.00000   0.00000   0.22998   0.00000   0.00000
  28        4S          5.76571   1.80066   0.00000  -1.26172   1.64866
  29        4PX         0.16199  -0.26847   0.00000  -0.08125  -0.17163
  30        4PY         2.13653   0.65456   0.00000  -0.33581   0.62940
  31        4PZ         0.00000   0.00000   0.14902   0.00000   0.00000
  32        5D 0       -0.05817   0.00725   0.00000  -0.13797   0.37090
  33        5D+1        0.00000   0.00000  -0.04839   0.00000   0.00000
  34        5D-1        0.00000   0.00000  -0.26948   0.00000   0.00000
  35        5D+2       -0.07979  -0.02786   0.00000   0.13757  -0.21547
  36        5D-2       -0.02200   0.21813   0.00000  -0.08159  -0.06063
  37 3   H  1S          0.08937  -0.06099   0.00000   0.28769   0.20057
  38        2S         -0.37366   0.06250   0.00000  -1.15593  -0.42878
  39        3S          0.44870   0.00383   0.00000   0.17678   0.29014
  40        4PX         0.03015  -0.10750   0.00000   0.40528  -0.15824
  41        4PY        -0.12972   0.49487   0.00000  -0.09281   0.75594
  42        4PZ         0.00000   0.00000  -0.07870   0.00000   0.00000
                          26        27        28        29        30
                           V         V         V         V         V
     Eigenvalues --     1.73891   1.88603   2.00271   2.13842   2.22549
   1 1   C  1S          0.00000   0.02938   0.00000   0.00712  -0.01931
   2        2S          0.00000   0.04944   0.00000   0.03039  -0.04352
   3        2PX         0.00000   0.03953   0.00000  -0.36506  -0.32085
   4        2PY         0.00000   0.38675   0.00000  -0.23209   0.18015
   5        2PZ        -0.08560   0.00000  -0.03228   0.00000   0.00000
   6        3S          0.00000  -0.00477   0.00000  -0.36701   0.30196
   7        3PX         0.00000   0.23179   0.00000   0.59359   0.00470
   8        3PY         0.00000  -0.04733   0.00000   0.36352  -0.29757
   9        3PZ         0.04850   0.00000   0.02800   0.00000   0.00000
  10        4S          0.00000  -0.67558   0.00000  -0.31604   0.95484
  11        4PX         0.00000   0.23943   0.00000  -0.16878  -0.38372
  12        4PY         0.00000   0.55907   0.00000   0.17534  -0.08341
  13        4PZ        -0.23561   0.00000  -0.04081   0.00000   0.00000
  14        5D 0        0.00000   0.84213   0.00000  -0.02897  -0.30550
  15        5D+1        0.83342   0.00000  -0.26718   0.00000   0.00000
  16        5D-1        0.24940   0.00000   0.01550   0.00000   0.00000
  17        5D+2        0.00000   0.62632   0.00000   0.09684   0.79802
  18        5D-2        0.00000  -0.17641   0.00000   0.27731  -0.13441
  19 2   N  1S          0.00000  -0.04203   0.00000   0.01455  -0.01784
  20        2S          0.00000  -0.09703   0.00000   0.02627  -0.04188
  21        2PX         0.00000   0.01027   0.00000   0.01539  -0.00233
  22        2PY         0.00000   0.09404   0.00000   0.00512   0.00759
  23        2PZ         0.02010   0.00000   0.00777   0.00000   0.00000
  24        3S          0.00000   0.91320   0.00000  -0.25432   0.46757
  25        3PX         0.00000  -0.02951   0.00000   0.13591  -0.03790
  26        3PY         0.00000   0.65018   0.00000   0.07160   0.21472
  27        3PZ         0.09432   0.00000   0.00513   0.00000   0.00000
  28        4S          0.00000  -0.10255   0.00000   0.93014  -0.82622
  29        4PX         0.00000   0.05293   0.00000  -0.13800   0.07368
  30        4PY         0.00000  -0.50508   0.00000   0.31439  -0.52617
  31        4PZ        -0.03820   0.00000  -0.00629   0.00000   0.00000
  32        5D 0        0.00000  -0.08159   0.00000  -0.31418   0.56767
  33        5D+1        0.02696   0.00000   0.99535   0.00000   0.00000
  34        5D-1       -0.07065   0.00000  -0.01995   0.00000   0.00000
  35        5D+2        0.00000   0.31549   0.00000   0.15591  -0.21384
  36        5D-2        0.00000   0.00007   0.00000  -0.15841  -0.24684
  37 3   H  1S          0.00000  -0.01856   0.00000  -1.20323  -0.33988
  38        2S          0.00000   0.52826   0.00000   1.46303  -0.14440
  39        3S          0.00000   0.20673   0.00000  -0.78229  -0.35669
  40        4PX         0.00000   0.42078   0.00000  -0.03874  -0.53804
  41        4PY         0.00000   0.07189   0.00000   0.37392  -0.66323
  42        4PZ         0.90943   0.00000   0.13412   0.00000   0.00000
                          31        32        33        34        35
                           V         V         V         V         V
     Eigenvalues --     2.36122   2.43717   2.68070   2.73820   2.82644
   1 1   C  1S          0.01688   0.00000   0.00775   0.00000   0.05134
   2        2S          0.04073   0.00000   0.00825   0.00000   0.13307
   3        2PX         0.62002   0.00000  -0.15898   0.00000  -0.13831
   4        2PY        -0.12505   0.00000  -0.07321   0.00000   0.50676
   5        2PZ         0.00000   0.83502   0.00000  -1.00421   0.00000
   6        3S         -0.19365   0.00000   0.12112   0.00000  -1.10221
   7        3PX         0.07551   0.00000   0.66591   0.00000   0.46904
   8        3PY         0.18026   0.00000  -0.32253   0.00000   0.49351
   9        3PZ         0.00000  -0.67951   0.00000   1.38440   0.00000
  10        4S         -0.62402   0.00000   0.70706   0.00000  -1.61960
  11        4PX         0.75522   0.00000  -0.01978   0.00000   0.04848
  12        4PY         0.09913   0.00000  -0.35178   0.00000   0.78827
  13        4PZ         0.00000   0.54231   0.00000  -0.31144   0.00000
  14        5D 0        0.14054   0.00000   0.04795   0.00000   0.34299
  15        5D+1        0.00000   0.03185   0.00000  -0.05326   0.00000
  16        5D-1        0.00000  -0.61581   0.00000  -0.56182   0.00000
  17        5D+2       -0.39983   0.00000  -0.59869   0.00000   0.22854
  18        5D-2       -0.71327   0.00000   0.12837   0.00000  -0.07441
  19 2   N  1S          0.01012   0.00000   0.01018   0.00000  -0.00495
  20        2S          0.01731   0.00000   0.01624   0.00000  -0.00881
  21        2PX         0.02179   0.00000   0.25475   0.00000   0.08797
  22        2PY        -0.06517   0.00000  -0.20958   0.00000   0.39587
  23        2PZ         0.00000  -0.03584   0.00000  -0.20554   0.00000
  24        3S         -0.06552   0.00000   0.10427   0.00000  -0.07237
  25        3PX        -0.03289   0.00000  -0.16775   0.00000  -0.08224
  26        3PY        -0.06462   0.00000  -0.15211   0.00000   0.00520
  27        3PZ         0.00000   0.00913   0.00000  -0.00567   0.00000
  28        4S         -0.05351   0.00000  -1.73551   0.00000   1.99403
  29        4PX        -0.18708   0.00000   0.58323   0.00000   0.19189
  30        4PY        -0.06722   0.00000  -0.96173   0.00000   1.06638
  31        4PZ         0.00000  -0.38680   0.00000  -0.24738   0.00000
  32        5D 0        0.30060   0.00000   0.61250   0.00000  -0.40912
  33        5D+1        0.00000   0.00712   0.00000  -0.02565   0.00000
  34        5D-1        0.00000  -0.82317   0.00000  -0.81110   0.00000
  35        5D+2       -0.11268   0.00000   0.14902   0.00000  -1.03673
  36        5D-2       -0.65145   0.00000   0.75681   0.00000   0.13706
  37 3   H  1S         -0.46441   0.00000  -0.55028   0.00000  -0.29527
  38        2S          1.48034   0.00000   1.91908   0.00000   0.89707
  39        3S          0.04674   0.00000  -0.30218   0.00000  -0.00981
  40        4PX         0.80813   0.00000   1.03354   0.00000   0.54061
  41        4PY         0.17836   0.00000  -0.14207   0.00000  -0.00221
  42        4PZ         0.00000   0.06518   0.00000  -0.13676   0.00000
                          36        37        38        39        40
                           V         V         V         V         V
     Eigenvalues --     2.98404   3.18973   3.71919   3.81166   4.31927
   1 1   C  1S          0.07023   0.04041   0.00000   0.00902   0.05616
   2        2S          0.15050   0.06447   0.00000   0.02079   0.13990
   3        2PX         0.00303  -1.10758   0.00000   0.19600   0.05656
   4        2PY        -1.16941  -0.08841   0.00000   0.02663   0.17742
   5        2PZ         0.00000   0.00000   0.16191   0.00000   0.00000
   6        3S         -0.99232  -0.31544   0.00000  -0.18757  -1.19141
   7        3PX        -0.01606   2.22546   0.00000  -0.36050  -0.20960
   8        3PY         2.93011   0.14676   0.00000   0.09382   1.50447
   9        3PZ         0.00000   0.00000  -0.37658   0.00000   0.00000
  10        4S         -2.10185   0.02793   0.00000   0.41025  -1.26174
  11        4PX         0.11738  -0.22616   0.00000   0.11944   0.03556
  12        4PY         0.31429  -0.16805   0.00000  -0.12720   0.53974
  13        4PZ         0.00000   0.00000   0.24364   0.00000   0.00000
  14        5D 0        0.66994   0.35566   0.00000  -0.00263   0.39350
  15        5D+1        0.00000   0.00000   0.01470   0.00000   0.00000
  16        5D-1        0.00000   0.00000   0.28963   0.00000   0.00000
  17        5D+2        1.04235  -0.72110   0.00000   0.10104   0.83810
  18        5D-2       -0.05182  -0.69599   0.00000   0.30381   0.05962
  19 2   N  1S         -0.04996   0.00366   0.00000  -0.00448  -0.04553
  20        2S         -0.12579   0.00633   0.00000  -0.01006  -0.08085
  21        2PX         0.02927  -0.23208   0.00000  -1.24794   0.10490
  22        2PY         0.09891  -0.11533   0.00000  -0.08998  -1.27845
  23        2PZ         0.00000   0.00000  -1.27849   0.00000   0.00000
  24        3S          1.16671   0.01567   0.00000   0.14708   0.56339
  25        3PX        -0.06697   0.02012   0.00000   1.57856  -0.12758
  26        3PY         1.34235   0.00683   0.00000   0.18191   2.58101
  27        3PZ         0.00000   0.00000   1.56193   0.00000   0.00000
  28        4S          1.96722  -0.55631   0.00000  -0.34365   2.09031
  29        4PX         0.18769  -0.15141   0.00000  -0.51149  -0.00168
  30        4PY         0.86985  -0.38023   0.00000  -0.20817   0.29203
  31        4PZ         0.00000   0.00000  -0.62497   0.00000   0.00000
  32        5D 0       -0.21875   0.13836   0.00000   0.03491  -0.49086
  33        5D+1        0.00000   0.00000   0.00846   0.00000   0.00000
  34        5D-1        0.00000   0.00000   0.21024   0.00000   0.00000
  35        5D+2       -0.62210   0.03057   0.00000  -0.10977  -0.73335
  36        5D-2        0.11104  -0.51369   0.00000   0.32641  -0.02943
  37 3   H  1S          0.18814   0.47688   0.00000  -0.29407   0.03578
  38        2S         -0.04442   0.99554   0.00000   0.35248  -0.29560
  39        3S          0.38788  -0.16860   0.00000  -0.23032   0.10161
  40        4PX         0.16519   1.05531   0.00000   0.16237  -0.24701
  41        4PY        -0.20583   0.38315   0.00000  -0.21286   0.06133
  42        4PZ         0.00000   0.00000   0.04190   0.00000   0.00000
                          41        42
                           V         V
     Eigenvalues --    23.91972  35.52931
   1 1   C  1S         -2.03821   0.09700
   2        2S          2.24444  -0.14110
   3        2PX        -0.03880  -0.00148
   4        2PY        -0.05960   0.03291
   5        2PZ         0.00000   0.00000
   6        3S         -0.75355   0.17046
   7        3PX         0.16761   0.01071
   8        3PY         0.54757  -0.29965
   9        3PZ         0.00000   0.00000
  10        4S         -0.26597  -0.07694
  11        4PX        -0.01261  -0.00913
  12        4PY         0.13663   0.09743
  13        4PZ         0.00000   0.00000
  14        5D 0        0.17925  -0.09445
  15        5D+1        0.00000   0.00000
  16        5D-1        0.00000   0.00000
  17        5D+2        0.16524  -0.16558
  18        5D-2       -0.04849   0.00448
  19 2   N  1S         -0.08567  -2.14739
  20        2S          0.05016   2.28546
  21        2PX        -0.00536   0.00016
  22        2PY        -0.07662   0.05320
  23        2PZ         0.00000   0.00000
  24        3S          0.18890  -0.51298
  25        3PX         0.00341   0.00319
  26        3PY         0.44964  -0.29125
  27        3PZ         0.00000   0.00000
  28        4S          0.58223   0.25431
  29        4PX         0.00023  -0.01471
  30        4PY         0.20832   0.09059
  31        4PZ         0.00000   0.00000
  32        5D 0       -0.10347   0.04646
  33        5D+1        0.00000   0.00000
  34        5D-1        0.00000   0.00000
  35        5D+2       -0.20408   0.08946
  36        5D-2       -0.00867  -0.00359
  37 3   H  1S          0.00286  -0.02186
  38        2S          0.18603   0.01981
  39        3S         -0.07046  -0.03637
  40        4PX         0.15868  -0.00131
  41        4PY         0.04234   0.02651
  42        4PZ         0.00000   0.00000
     Density Matrix:
                           1         2         3         4         5
   1 1   C  1S          0.66231
   2        2S          0.56695   0.50061
   3        2PX        -0.00258  -0.00419   0.05365
   4        2PY        -0.00633  -0.01128  -0.00015   0.11904
   5        2PZ         0.00000   0.00000   0.00000   0.00000   0.05802
   6        3S         -0.10320  -0.17695   0.01292   0.03238   0.00000
   7        3PX        -0.00542  -0.00678   0.07663  -0.00318   0.00000
   8        3PY        -0.01624  -0.02233  -0.00114   0.15245   0.00000
   9        3PZ         0.00000   0.00000   0.00000   0.00000   0.08581
  10        4S         -0.10642  -0.17066   0.04108   0.19658   0.00000
  11        4PX        -0.00166  -0.00312   0.03608   0.00506   0.00000
  12        4PY        -0.02040  -0.03148   0.00208   0.06130   0.00000
  13        4PZ         0.00000   0.00000   0.00000   0.00000   0.06191
  14        5D 0       -0.00110   0.00025   0.00201   0.00716   0.00000
  15        5D+1        0.00000   0.00000   0.00000   0.00000  -0.00295
  16        5D-1        0.00000   0.00000   0.00000   0.00000  -0.01518
  17        5D+2       -0.00317  -0.00341  -0.00530   0.01681   0.00000
  18        5D-2        0.00211   0.00281  -0.01225  -0.00553   0.00000
  19 2   N  1S          0.00342   0.00523  -0.00415   0.02174   0.00000
  20        2S          0.00570   0.00765  -0.00672   0.03471   0.00000
  21        2PX        -0.01123  -0.01812   0.05516   0.01439   0.00000
  22        2PY        -0.02372  -0.03690   0.00355  -0.09857   0.00000
  23        2PZ         0.00000   0.00000   0.00000   0.00000   0.07764
  24        3S         -0.01456  -0.01587   0.02046  -0.09737   0.00000
  25        3PX        -0.01694  -0.02723   0.08253   0.02171   0.00000
  26        3PY        -0.03873  -0.05499   0.00469  -0.13410   0.00000
  27        3PZ         0.00000   0.00000   0.00000   0.00000   0.11401
  28        4S          0.02074   0.04220   0.01468  -0.05374   0.00000
  29        4PX        -0.01860  -0.02992   0.05667   0.02803   0.00000
  30        4PY        -0.01485  -0.02011   0.00092  -0.10688   0.00000
  31        4PZ         0.00000   0.00000   0.00000   0.00000   0.09417
  32        5D 0        0.00330   0.00413   0.00115   0.00740   0.00000
  33        5D+1        0.00000   0.00000   0.00000   0.00000  -0.00156
  34        5D-1        0.00000   0.00000   0.00000   0.00000   0.01066
  35        5D+2        0.00604   0.00751  -0.00241   0.01161   0.00000
  36        5D-2       -0.00078  -0.00141   0.00940   0.00257   0.00000
  37 3   H  1S         -0.01627  -0.02528  -0.05213   0.01017   0.00000
  38        2S         -0.02067  -0.02995  -0.08511   0.02188   0.00000
  39        3S          0.00095  -0.00042  -0.02072   0.04550   0.00000
  40        4PX        -0.00559  -0.00673  -0.00779  -0.00337   0.00000
  41        4PY        -0.00404  -0.00605   0.00341   0.00811   0.00000
  42        4PZ         0.00000   0.00000   0.00000   0.00000   0.00769
                           6         7         8         9        10
   6        3S          0.53056
   7        3PX         0.01476   0.10957
   8        3PY         0.04759  -0.00547   0.19586
   9        3PZ         0.00000   0.00000   0.00000   0.12690
  10        4S          0.47652   0.05160   0.25534   0.00000   0.68781
  11        4PX         0.00994   0.05137   0.00640   0.00000   0.03478
  12        4PY         0.08242   0.00105   0.08001   0.00000   0.15331
  13        4PZ         0.00000   0.00000   0.00000   0.09156   0.00000
  14        5D 0       -0.00673   0.00276   0.00894   0.00000   0.00640
  15        5D+1        0.00000   0.00000   0.00000  -0.00436   0.00000
  16        5D-1        0.00000   0.00000   0.00000  -0.02244   0.00000
  17        5D+2        0.00432  -0.00798   0.02149   0.00000   0.02500
  18        5D-2       -0.00621  -0.01736  -0.00690   0.00000  -0.01996
  19 2   N  1S         -0.00810  -0.00658   0.02912   0.00000   0.03567
  20        2S         -0.00935  -0.01033   0.04294   0.00000   0.05521
  21        2PX         0.05207   0.07826   0.01773   0.00000   0.09438
  22        2PY         0.10687   0.00706  -0.12818   0.00000  -0.04638
  23        2PZ         0.00000   0.00000   0.00000   0.11481   0.00000
  24        3S          0.00564   0.03042  -0.10934   0.00000  -0.15642
  25        3PX         0.07803   0.11708   0.02666   0.00000   0.14181
  26        3PY         0.14213   0.00943  -0.17430   0.00000  -0.06565
  27        3PZ         0.00000   0.00000   0.00000   0.16860   0.00000
  28        4S         -0.16270   0.02210  -0.05597   0.00000  -0.23110
  29        4PX         0.08502   0.07992   0.03542   0.00000   0.14135
  30        4PY         0.05345   0.00386  -0.14039   0.00000  -0.10022
  31        4PZ         0.00000   0.00000   0.00000   0.13927   0.00000
  32        5D 0       -0.00827   0.00151   0.00931   0.00000   0.00465
  33        5D+1        0.00000   0.00000   0.00000  -0.00231   0.00000
  34        5D-1        0.00000   0.00000   0.00000   0.01577   0.00000
  35        5D+2       -0.01514  -0.00366   0.01490   0.00000   0.00260
  36        5D-2        0.00461   0.01335   0.00311   0.00000   0.01287
  37 3   H  1S          0.06670  -0.07516   0.01546   0.00000   0.03651
  38        2S          0.07191  -0.12260   0.03106   0.00000   0.03875
  39        3S          0.00374  -0.03082   0.06006   0.00000   0.05301
  40        4PX         0.01200  -0.01112  -0.00388   0.00000   0.00010
  41        4PY         0.01585   0.00461   0.01025   0.00000   0.02676
  42        4PZ         0.00000   0.00000   0.00000   0.01137   0.00000
                          11        12        13        14        15
  11        4PX         0.02525
  12        4PY         0.00501   0.04114
  13        4PZ         0.00000   0.00000   0.06606
  14        5D 0        0.00151   0.00242   0.00000   0.00071
  15        5D+1        0.00000   0.00000  -0.00314   0.00000   0.00015
  16        5D-1        0.00000   0.00000  -0.01619   0.00000   0.00077
  17        5D+2       -0.00310   0.00824   0.00000   0.00086   0.00000
  18        5D-2       -0.00850  -0.00358   0.00000  -0.00076   0.00000
  19 2   N  1S         -0.00626   0.00108   0.00000   0.00362   0.00000
  20        2S         -0.01014   0.00406   0.00000   0.00472   0.00000
  21        2PX         0.03751   0.01374   0.00000   0.00238   0.00000
  22        2PY        -0.00673  -0.04006   0.00000  -0.00713   0.00000
  23        2PZ         0.00000   0.00000   0.08284   0.00000  -0.00394
  24        3S          0.03000  -0.01962   0.00000  -0.00975   0.00000
  25        3PX         0.05597   0.02048   0.00000   0.00359   0.00000
  26        3PY        -0.00924  -0.05485   0.00000  -0.00962   0.00000
  27        3PZ         0.00000   0.00000   0.12165   0.00000  -0.00579
  28        4S          0.02779  -0.02013   0.00000  -0.00419   0.00000
  29        4PX         0.03895   0.02426   0.00000   0.00278   0.00000
  30        4PY        -0.01019  -0.05248   0.00000  -0.00656   0.00000
  31        4PZ         0.00000   0.00000   0.10049   0.00000  -0.00478
  32        5D 0        0.00110   0.00253   0.00000   0.00067   0.00000
  33        5D+1        0.00000   0.00000  -0.00167   0.00000   0.00008
  34        5D-1        0.00000   0.00000   0.01138   0.00000  -0.00054
  35        5D+2       -0.00078   0.00406   0.00000   0.00084   0.00000
  36        5D-2        0.00638   0.00185   0.00000   0.00049   0.00000
  37 3   H  1S         -0.03393   0.01371   0.00000  -0.00284   0.00000
  38        2S         -0.05579   0.01946   0.00000  -0.00350   0.00000
  39        3S         -0.00996   0.02469   0.00000   0.00160   0.00000
  40        4PX        -0.00528  -0.00002   0.00000  -0.00077   0.00000
  41        4PY         0.00232   0.00553   0.00000   0.00046   0.00000
  42        4PZ         0.00000   0.00000   0.00821   0.00000  -0.00039
                          16        17        18        19        20
  16        5D-1        0.00397
  17        5D+2        0.00000   0.00300
  18        5D-2        0.00000   0.00043   0.00307
  19 2   N  1S          0.00000   0.00748   0.00002   0.65335
  20        2S          0.00000   0.01006   0.00008   0.57053   0.51544
  21        2PX         0.00000  -0.00326  -0.01339  -0.00128  -0.00185
  22        2PY         0.00000  -0.01234   0.00344   0.00835   0.01319
  23        2PZ        -0.02031   0.00000   0.00000   0.00000   0.00000
  24        3S          0.00000  -0.02255  -0.00064  -0.12613  -0.21306
  25        3PX         0.00000  -0.00479  -0.02004  -0.00070  -0.00106
  26        3PY         0.00000  -0.01675   0.00471   0.01401   0.02010
  27        3PZ        -0.02982   0.00000   0.00000   0.00000   0.00000
  28        4S          0.00000  -0.01620  -0.00075  -0.13839  -0.21357
  29        4PX         0.00000  -0.00137  -0.01447   0.00189   0.00297
  30        4PY         0.00000  -0.01291   0.00462   0.01263   0.02240
  31        4PZ        -0.02463   0.00000   0.00000   0.00000   0.00000
  32        5D 0        0.00000   0.00090  -0.00057   0.00072   0.00167
  33        5D+1        0.00041   0.00000   0.00000   0.00000   0.00000
  34        5D-1       -0.00279   0.00000   0.00000   0.00000   0.00000
  35        5D+2        0.00000   0.00171   0.00007  -0.00065  -0.00005
  36        5D-2        0.00000  -0.00054  -0.00227   0.00003   0.00002
  37 3   H  1S          0.00000   0.00649   0.01116   0.00036   0.00065
  38        2S          0.00000   0.01148   0.01811   0.00505   0.00884
  39        3S          0.00000   0.00777   0.00258  -0.00116  -0.00242
  40        4PX         0.00000   0.00029   0.00188  -0.00115  -0.00166
  41        4PY         0.00000   0.00094  -0.00120   0.00238   0.00417
  42        4PZ        -0.00201   0.00000   0.00000   0.00000   0.00000
                          21        22        23        24        25
  21        2PX         0.06090
  22        2PY         0.00189   0.14623
  23        2PZ         0.00000   0.00000   0.10388
  24        3S          0.00522  -0.04018   0.00000   0.63933
  25        3PX         0.09118   0.00362   0.00000   0.00374   0.13654
  26        3PY         0.00220   0.19802   0.00000  -0.05417   0.00438
  27        3PZ         0.00000   0.00000   0.15254   0.00000   0.00000
  28        4S         -0.00732  -0.12091   0.00000   0.58434  -0.01495
  29        4PX         0.06610  -0.00091   0.00000  -0.00801   0.09902
  30        4PY        -0.00485   0.14842   0.00000  -0.07291  -0.00623
  31        4PZ         0.00000   0.00000   0.12601   0.00000   0.00000
  32        5D 0        0.00137  -0.00881   0.00000  -0.00603   0.00206
  33        5D+1        0.00000   0.00000  -0.00209   0.00000   0.00000
  34        5D-1        0.00000   0.00000   0.01427   0.00000   0.00000
  35        5D+2       -0.00235  -0.01640   0.00000  -0.00262  -0.00356
  36        5D-2        0.01010  -0.00081   0.00000   0.00025   0.01513
  37 3   H  1S         -0.04743   0.00333   0.00000  -0.00461  -0.07107
  38        2S         -0.07920  -0.00478   0.00000  -0.03088  -0.11854
  39        3S         -0.01657  -0.05259   0.00000   0.00860  -0.02510
  40        4PX        -0.00746   0.00539   0.00000   0.00368  -0.01118
  41        4PY         0.00544  -0.00122   0.00000  -0.01310   0.00822
  42        4PZ         0.00000   0.00000   0.01029   0.00000   0.00000
                          26        27        28        29        30
  26        3PY         0.26826
  27        3PZ         0.00000   0.22401
  28        4S         -0.16301   0.00000   0.60887
  29        4PX        -0.00178   0.00000  -0.02565   0.07455
  30        4PY         0.20129   0.00000  -0.13838  -0.01122   0.15859
  31        4PZ         0.00000   0.18504   0.00000   0.00000   0.00000
  32        5D 0       -0.01195   0.00000   0.00024   0.00166  -0.00837
  33        5D+1        0.00000  -0.00307   0.00000   0.00000   0.00000
  34        5D-1        0.00000   0.02095   0.00000   0.00000   0.00000
  35        5D+2       -0.02222   0.00000   0.00797  -0.00215  -0.01594
  36        5D-2       -0.00114   0.00000  -0.00035   0.01076  -0.00153
  37 3   H  1S          0.00425   0.00000  -0.02201  -0.04363  -0.00352
  38        2S         -0.00672   0.00000  -0.04383  -0.07440  -0.01147
  39        3S         -0.07143   0.00000   0.02803  -0.01256  -0.05791
  40        4PX         0.00730   0.00000  -0.00188  -0.00726   0.00438
  41        4PY        -0.00175   0.00000  -0.01479   0.00725  -0.00265
  42        4PZ         0.00000   0.01511   0.00000   0.00000   0.00000
                          31        32        33        34        35
  31        4PZ         0.15285
  32        5D 0        0.00000   0.00071
  33        5D+1       -0.00254   0.00000   0.00004
  34        5D-1        0.01731   0.00000  -0.00029   0.00196
  35        5D+2        0.00000   0.00104   0.00000   0.00000   0.00201
  36        5D-2        0.00000   0.00033   0.00000   0.00000  -0.00024
  37 3   H  1S          0.00000  -0.00205   0.00000   0.00000   0.00100
  38        2S          0.00000  -0.00225   0.00000   0.00000   0.00318
  39        3S          0.00000   0.00248   0.00000   0.00000   0.00636
  40        4PX         0.00000  -0.00069   0.00000   0.00000  -0.00045
  41        4PY         0.00000   0.00031   0.00000   0.00000   0.00006
  42        4PZ         0.01248   0.00000  -0.00021   0.00141   0.00000
                          36        37        38        39        40
  36        5D-2        0.00171
  37 3   H  1S         -0.00872   0.06348
  38        2S         -0.01420   0.09783   0.15383
  39        3S         -0.00277   0.02531   0.04193   0.03066
  40        4PX        -0.00140   0.00959   0.01432   0.00190   0.00168
  41        4PY         0.00083  -0.00103  -0.00200   0.00086  -0.00040
  42        4PZ         0.00000   0.00000   0.00000   0.00000   0.00000
                          41        42
  41        4PY         0.00122
  42        4PZ         0.00000   0.00102
    Full Mulliken population analysis:
                           1         2         3         4         5
   1 1   C  1S          0.66231
   2        2S          0.49804   0.50061
   3        2PX         0.00000   0.00000   0.05365
   4        2PY         0.00000   0.00000   0.00000   0.11904
   5        2PZ         0.00000   0.00000   0.00000   0.00000   0.05802
   6        3S         -0.03397  -0.07411   0.00000   0.00000   0.00000
   7        3PX         0.00000   0.00000   0.04821   0.00000   0.00000
   8        3PY         0.00000   0.00000   0.00000   0.09591   0.00000
   9        3PZ         0.00000   0.00000   0.00000   0.00000   0.05398
  10        4S         -0.01636  -0.03194   0.00000   0.00000   0.00000
  11        4PX         0.00000   0.00000   0.00795   0.00000   0.00000
  12        4PY         0.00000   0.00000   0.00000   0.01350   0.00000
  13        4PZ         0.00000   0.00000   0.00000   0.00000   0.01364
  14        5D 0        0.00000   0.00000   0.00000   0.00000   0.00000
  15        5D+1        0.00000   0.00000   0.00000   0.00000   0.00000
  16        5D-1        0.00000   0.00000   0.00000   0.00000   0.00000
  17        5D+2        0.00000   0.00000   0.00000   0.00000   0.00000
  18        5D-2        0.00000   0.00000   0.00000   0.00000   0.00000
  19 2   N  1S          0.00000   0.00000   0.00000  -0.00016   0.00000
  20        2S          0.00000   0.00000   0.00000  -0.00018   0.00000
  21        2PX         0.00000   0.00000   0.00049   0.00000   0.00000
  22        2PY        -0.00010  -0.00007   0.00000   0.00684   0.00000
  23        2PZ         0.00000   0.00000   0.00000   0.00000   0.00069
  24        3S         -0.00034  -0.00040   0.00000   0.01281   0.00000
  25        3PX         0.00000   0.00000   0.00587   0.00000   0.00000
  26        3PY        -0.00272  -0.00455   0.00000   0.03565   0.00000
  27        3PZ         0.00000   0.00000   0.00000   0.00000   0.00812
  28        4S          0.00154   0.00377   0.00000   0.00673   0.00000
  29        4PX         0.00000   0.00000   0.00709   0.00000   0.00000
  30        4PY        -0.00208  -0.00346   0.00000   0.01037   0.00000
  31        4PZ         0.00000   0.00000   0.00000   0.00000   0.01177
  32        5D 0       -0.00013  -0.00020   0.00000   0.00104   0.00000
  33        5D+1        0.00000   0.00000   0.00000   0.00000   0.00000
  34        5D-1        0.00000   0.00000   0.00000   0.00000   0.00138
  35        5D+2       -0.00041  -0.00062   0.00000   0.00283   0.00000
  36        5D-2        0.00000   0.00000   0.00122   0.00000   0.00000
  37 3   H  1S         -0.00011  -0.00013   0.00347  -0.00020   0.00000
  38        2S         -0.00123  -0.00211   0.01269  -0.00097   0.00000
  39        3S          0.00007  -0.00004   0.00134  -0.00087   0.00000
  40        4PX        -0.00032  -0.00045   0.00180   0.00029   0.00000
  41        4PY        -0.00007  -0.00012  -0.00030   0.00030   0.00000
  42        4PZ         0.00000   0.00000   0.00000   0.00000   0.00049
                           6         7         8         9        10
   6        3S          0.53056
   7        3PX         0.00000   0.10957
   8        3PY         0.00000   0.00000   0.19586
   9        3PZ         0.00000   0.00000   0.00000   0.12690
  10        4S          0.36916   0.00000   0.00000   0.00000   0.68781
  11        4PX         0.00000   0.03357   0.00000   0.00000   0.00000
  12        4PY         0.00000   0.00000   0.05228   0.00000   0.00000
  13        4PZ         0.00000   0.00000   0.00000   0.05983   0.00000
  14        5D 0        0.00000   0.00000   0.00000   0.00000   0.00000
  15        5D+1        0.00000   0.00000   0.00000   0.00000   0.00000
  16        5D-1        0.00000   0.00000   0.00000   0.00000   0.00000
  17        5D+2        0.00000   0.00000   0.00000   0.00000   0.00000
  18        5D-2        0.00000   0.00000   0.00000   0.00000   0.00000
  19 2   N  1S         -0.00026   0.00000  -0.00258   0.00000   0.00224
  20        2S         -0.00032   0.00000  -0.00427   0.00000   0.00387
  21        2PX         0.00000   0.00513   0.00000   0.00000   0.00000
  22        2PY         0.01089   0.00000   0.02496   0.00000  -0.00297
  23        2PZ         0.00000   0.00000   0.00000   0.00753   0.00000
  24        3S          0.00134   0.00000   0.04729   0.00000  -0.05698
  25        3PX         0.00000   0.02740   0.00000   0.00000   0.00000
  26        3PY         0.05168   0.00000   0.07464   0.00000  -0.01552
  27        3PZ         0.00000   0.00000   0.00000   0.03945   0.00000
  28        4S         -0.06960   0.00000   0.02185   0.00000  -0.14868
  29        4PX         0.00000   0.03114   0.00000   0.00000   0.00000
  30        4PY         0.03236   0.00000   0.02286   0.00000  -0.05428
  31        4PZ         0.00000   0.00000   0.00000   0.05426   0.00000
  32        5D 0        0.00100   0.00000   0.00084   0.00000  -0.00014
  33        5D+1        0.00000   0.00000   0.00000   0.00000   0.00000
  34        5D-1        0.00000   0.00000   0.00000   0.00425   0.00000
  35        5D+2        0.00317   0.00000   0.00232   0.00000  -0.00014
  36        5D-2        0.00000   0.00359   0.00000   0.00000   0.00000
  37 3   H  1S          0.00959   0.02317  -0.00141   0.00000   0.00881
  38        2S          0.02639   0.05401  -0.00406   0.00000   0.02081
  39        3S          0.00162   0.00699  -0.00404   0.00000   0.03835
  40        4PX         0.00387   0.00410   0.00067   0.00000   0.00002
  41        4PY         0.00152  -0.00080   0.00169   0.00000   0.00165
  42        4PZ         0.00000   0.00000   0.00000   0.00246   0.00000
                          11        12        13        14        15
  11        4PX         0.02525
  12        4PY         0.00000   0.04114
  13        4PZ         0.00000   0.00000   0.06606
  14        5D 0        0.00000   0.00000   0.00000   0.00071
  15        5D+1        0.00000   0.00000   0.00000   0.00000   0.00015
  16        5D-1        0.00000   0.00000   0.00000   0.00000   0.00000
  17        5D+2        0.00000   0.00000   0.00000   0.00000   0.00000
  18        5D-2        0.00000   0.00000   0.00000   0.00000   0.00000
  19 2   N  1S          0.00000  -0.00011   0.00000  -0.00021   0.00000
  20        2S          0.00000  -0.00048   0.00000  -0.00031   0.00000
  21        2PX         0.00282   0.00000   0.00000   0.00000   0.00000
  22        2PY         0.00000   0.00110   0.00000   0.00083   0.00000
  23        2PZ         0.00000   0.00000   0.00622   0.00000   0.00000
  24        3S          0.00000   0.01005   0.00000   0.00187   0.00000
  25        3PX         0.01551   0.00000   0.00000   0.00000   0.00000
  26        3PY         0.00000   0.00303   0.00000   0.00127   0.00000
  27        3PZ         0.00000   0.00000   0.03371   0.00000   0.00000
  28        4S          0.00000   0.01280   0.00000   0.00033   0.00000
  29        4PX         0.02474   0.00000   0.00000   0.00000   0.00000
  30        4PY         0.00000  -0.00522   0.00000  -0.00025   0.00000
  31        4PZ         0.00000   0.00000   0.06382   0.00000   0.00000
  32        5D 0        0.00000  -0.00007   0.00000   0.00009   0.00000
  33        5D+1        0.00000   0.00000   0.00000   0.00000   0.00001
  34        5D-1        0.00000   0.00000   0.00141   0.00000   0.00000
  35        5D+2        0.00000  -0.00019   0.00000  -0.00002   0.00000
  36        5D-2        0.00079   0.00000   0.00000   0.00000   0.00000
  37 3   H  1S          0.01199  -0.00144   0.00000   0.00050   0.00000
  38        2S          0.03388  -0.00351   0.00000   0.00047   0.00000
  39        3S          0.00488  -0.00359   0.00000  -0.00004   0.00000
  40        4PX         0.00016   0.00000   0.00000   0.00010   0.00000
  41        4PY        -0.00020   0.00127   0.00000  -0.00002   0.00000
  42        4PZ         0.00000   0.00000   0.00209   0.00000   0.00013
                          16        17        18        19        20
  16        5D-1        0.00397
  17        5D+2        0.00000   0.00300
  18        5D-2        0.00000   0.00000   0.00307
  19 2   N  1S          0.00000  -0.00075   0.00000   0.65335
  20        2S          0.00000  -0.00116   0.00000   0.50907   0.51544
  21        2PX         0.00000   0.00000   0.00186   0.00000   0.00000
  22        2PY         0.00000   0.00248   0.00000   0.00000   0.00000
  23        2PZ         0.00283   0.00000   0.00000   0.00000   0.00000
  24        3S          0.00000   0.00750   0.00000  -0.04342  -0.08754
  25        3PX         0.00000   0.00000   0.00721   0.00000   0.00000
  26        3PY         0.00000   0.00382   0.00000   0.00000   0.00000
  27        3PZ         0.01073   0.00000   0.00000   0.00000   0.00000
  28        4S          0.00000   0.00222   0.00000  -0.02192  -0.03842
  29        4PX         0.00000   0.00000   0.00396   0.00000   0.00000
  30        4PY         0.00000  -0.00085   0.00000   0.00000   0.00000
  31        4PZ         0.00675   0.00000   0.00000   0.00000   0.00000
  32        5D 0        0.00000  -0.00002   0.00000   0.00000   0.00000
  33        5D+1        0.00000   0.00000   0.00000   0.00000   0.00000
  34        5D-1        0.00111   0.00000   0.00000   0.00000   0.00000
  35        5D+2        0.00000   0.00018   0.00000   0.00000   0.00000
  36        5D-2        0.00000   0.00000   0.00091   0.00000   0.00000
  37 3   H  1S          0.00000   0.00166   0.00185   0.00000   0.00000
  38        2S          0.00000   0.00223   0.00229   0.00013   0.00024
  39        3S          0.00000   0.00030   0.00007  -0.00006  -0.00013
  40        4PX         0.00000   0.00004   0.00040  -0.00001  -0.00002
  41        4PY         0.00000   0.00023   0.00029  -0.00002  -0.00004
  42        4PZ         0.00020   0.00000   0.00000   0.00000   0.00000
                          21        22        23        24        25
  21        2PX         0.06090
  22        2PY         0.00000   0.14623
  23        2PZ         0.00000   0.00000   0.10388
  24        3S          0.00000   0.00000   0.00000   0.63933
  25        3PX         0.05653   0.00000   0.00000   0.00000   0.13654
  26        3PY         0.00000   0.12277   0.00000   0.00000   0.00000
  27        3PZ         0.00000   0.00000   0.09458   0.00000   0.00000
  28        4S          0.00000   0.00000   0.00000   0.44810   0.00000
  29        4PX         0.01387   0.00000   0.00000   0.00000   0.06361
  30        4PY         0.00000   0.03113   0.00000   0.00000   0.00000
  31        4PZ         0.00000   0.00000   0.02643   0.00000   0.00000
  32        5D 0        0.00000   0.00000   0.00000   0.00000   0.00000
  33        5D+1        0.00000   0.00000   0.00000   0.00000   0.00000
  34        5D-1        0.00000   0.00000   0.00000   0.00000   0.00000
  35        5D+2        0.00000   0.00000   0.00000   0.00000   0.00000
  36        5D-2        0.00000   0.00000   0.00000   0.00000   0.00000
  37 3   H  1S          0.00033   0.00002   0.00000  -0.00018   0.00621
  38        2S          0.00430  -0.00019   0.00000  -0.00576   0.02529
  39        3S          0.00057  -0.00134   0.00000   0.00251   0.00339
[...]
 Electronic spatial extent (au):  <R**2>=             47.4700
 Charge=              0.0000 electrons
 Dipole moment (field-independent basis, Debye):
    X=             -1.2588    Y=              0.1405    Z=              0.0000  Tot=              1.2666
 Quadrupole moment (field-independent basis, Debye-Ang):
   XX=             -9.6635   YY=            -14.2872   ZZ=            -12.0465
   XY=             -0.3471   XZ=              0.0000   YZ=              0.0000
 Traceless Quadrupole moment (field-independent basis, Debye-Ang):
   XX=              2.3355   YY=             -2.2881   ZZ=             -0.0474
   XY=             -0.3471   XZ=              0.0000   YZ=              0.0000
 Octapole moment (field-independent basis, Debye-Ang**2):
  XXX=             -2.3646  YYY=             -3.0255  ZZZ=              0.0000  XYY=             -0.1937
  XXY=             -0.5940  XXZ=              0.0000  XZZ=             -0.2318  YZZ=             -0.6989
  YYZ=              0.0000  XYZ=              0.0000
 Hexadecapole moment (field-independent basis, Debye-Ang**3):
 XXXX=            -12.8153 YYYY=            -42.7413 ZZZZ=            -11.8780 XXXY=             -0.1395
 XXXZ=              0.0000 YYYX=              0.4467 YYYZ=              0.0000 ZZZX=              0.0000
 ZZZY=              0.0000 XXYY=             -9.0155 XXZZ=             -4.5573 YYZZ=             -8.6021
 XXYZ=              0.0000 YYXZ=              0.0000 ZZXY=              0.1519
 N-N= 2.409143076948D+01 E-N=-2.660063753228D+02  KE= 9.307290177889D+01
 Symmetry A'   KE= 9.011062388300D+01
 Symmetry A"   KE= 2.962277895892D+00
 Orbital energies and kinetic energies (alpha):
                                 1                 2
   1         O               -14.385172         22.051526
   2         O               -10.234375         15.952917
   3         O                -0.994153          2.149970
   4         O                -0.532478          1.479116
   5         O                -0.455463          1.858247
   6         O                -0.393186          1.481139
   7         O                -0.345774          1.563536
   8         V                -0.070045          1.681570
   9         V                 0.000548          1.607147
  10         V                 0.035554          0.876634
  11         V                 0.216367          0.849427
  12         V                 0.304110          0.926067
  13         V                 0.395612          1.352823
  14         V                 0.407579          1.505592
  15         V                 0.526836          1.564583
  16         V                 0.547160          1.898975
  17         V                 0.632083          1.931379
  18         V                 0.639495          1.988045
  19         V                 0.731355          3.239532
  20         V                 1.002688          1.867142
  21         V                 1.027699          3.265099
  22         V                 1.231153          2.350891
  23         V                 1.357836          2.500099
  24         V                 1.425578          2.445123
  25         V                 1.580469          2.627715
  26         V                 1.738905          2.594557
  27         V                 1.886026          3.674958
  28         V                 2.002710          3.283651
  29         V                 2.138419          3.981494
  30         V                 2.225486          3.668576
  31         V                 2.361218          4.387346
  32         V                 2.437165          4.819798
  33         V                 2.680695          4.329473
  34         V                 2.738205          5.414189
  35         V                 2.826440          5.416092
  36         V                 2.984043          6.319544
  37         V                 3.189729          6.087688
  38         V                 3.719187          8.785673
  39         V                 3.811661          8.707658
  40         V                 4.319273          9.409638
  41         V                23.919719         60.471265
  42         V                35.529312         89.003279
 Total kinetic energy from orbitals= 9.307290177889D+01
  Exact polarizability:  14.058   0.129  18.618   0.000   0.000  10.258
 Approx polarizability:  20.762   0.970  36.047   0.000   0.000  13.876
 No NMR shielding tensors so no spin-rotation constants.
 Leave Link  601 at Thu Apr 14 13:06:41 2016, MaxMem=   104857600 cpu:         0.1
 (Enter /home/projets/algogen/g09.D01/g09/l701.exe)
 Compute integral second derivatives.
 ... and contract with generalized density number  0.
 Leave Link  701 at Thu Apr 14 13:06:41 2016, MaxMem=   104857600 cpu:         0.2
 (Enter /home/projets/algogen/g09.D01/g09/l702.exe)
 L702 exits ... SP integral derivatives will be done elsewhere.
 Leave Link  702 at Thu Apr 14 13:06:41 2016, MaxMem=   104857600 cpu:         0.0
 (Enter /home/projets/algogen/g09.D01/g09/l703.exe)
 Compute integral second derivatives, UseDBF=F ICtDFT=           0.
 Integral derivatives from FoFJK, PRISM(SPDF).
 Calling FoFJK, ICntrl=    100127 FMM=F ISym2X=1 I1Cent= 0 IOpClX= 0 NMat=1 NMatS=1 NMatT=0.
 FoFJK:  IHMeth= 1 ICntrl=  100127 DoSepK=F KAlg= 0 I1Cent=   0 FoldK=F
 IRaf=         0 NMat=   1 IRICut=       1 DoRegI=T DoRafI=F ISym2E= 1.
 FoFCou: FMM=F IPFlag=           0 FMFlag=      100000 FMFlg1=         800
         NFxFlg=           0 DoJE=F BraDBF=F KetDBF=F FulRan=T
         wScrn=  0.000000 ICntrl=  100127 IOpCl=  0 I1Cent=           0 NGrid=           0
         NMat0=    1 NMatS0=      1 NMatT0=    0 NMatD0=    1 NMtDS0=    0 NMtDT0=    0
 Petite list used in FoFCou.
 Leave Link  703 at Thu Apr 14 13:06:42 2016, MaxMem=   104857600 cpu:         1.3
 (Enter /home/projets/algogen/g09.D01/g09/l716.exe)
 Dipole        =-4.95260391D-01 5.52949159D-02-2.61613751D-32
 Polarizability= 1.40575485D+01 1.28648893D-01 1.86180560D+01
                -3.96210837D-10 9.45671107D-11 1.02578169D+01
 Full mass-weighted force constant matrix:
 Low frequencies ----1138.2594 -121.5816  -26.5000    0.0006    0.0008    0.0010
 Low frequencies ---  110.8432 2069.9034 2632.0647
 ******    1 imaginary frequencies (negative Signs) ****** 
 Diagonal vibrational polarizability:
        0.5967105       2.0823681       0.0000000
 Harmonic frequencies (cm**-1), IR intensities (KM/Mole), Raman scattering
 activities (A**4/AMU), depolarization ratios for plane and unpolarized
 incident light, reduced masses (AMU), force constants (mDyne/A),
 and normal coordinates:
                      1                      2                      3
                     A'                     A'                     A'
 Frequencies --  -1138.2594              2069.9020              2632.0604
 Red. masses --      1.1700                12.1019                 1.0599
 Frc consts  --      0.8931                30.5493                 4.3263
 IR Inten    --    100.1154                 8.8826               139.9958
  Atom  AN      X      Y      Z        X      Y      Z        X      Y      Z
     1   6     0.07   0.06   0.00    -0.02   0.73   0.00     0.07   0.01   0.00
     2   7    -0.07   0.02   0.00     0.02  -0.64   0.00     0.01   0.00   0.00
     3   1     0.13  -0.98   0.00     0.07   0.25   0.00    -0.99  -0.08   0.00

 -------------------
 - Thermochemistry -
 -------------------
 Temperature   298.150 Kelvin.  Pressure   1.00000 Atm.
 Atom     1 has atomic number  6 and mass  12.00000
 Atom     2 has atomic number  7 and mass  14.00307
 Atom     3 has atomic number  1 and mass   1.00783
 Molecular mass:    27.01090 amu.
 Principal axes and moments of inertia in atomic units:
                           1         2         3
     Eigenvalues --     4.40985  32.64519  37.05504
           X           -0.04187   0.99912   0.00000
           Y            0.99912   0.04187   0.00000
           Z            0.00000   0.00000   1.00000
 This molecule is an asymmetric top.
 Rotational symmetry number  1.
 Rotational temperatures (Kelvin)     19.64099     2.65319     2.33744
 Rotational constants (GHZ):         409.25239    55.28352    48.70433
    1 imaginary frequencies ignored.
 Zero-point vibrational energy      28124.0 (Joules/Mol)
                                    6.72179 (Kcal/Mol)
 Vibrational temperatures:   2978.12  3786.94
          (Kelvin)
 
 Zero-point correction=                           0.010712 (Hartree/Particle)
 Thermal correction to Energy=                    0.013545
 Thermal correction to Enthalpy=                  0.014489
 Thermal correction to Gibbs Free Energy=        -0.010288
 Sum of electronic and zero-point Energies=            -93.364646
 Sum of electronic and thermal Energies=               -93.361813
 Sum of electronic and thermal Enthalpies=             -93.360869
 Sum of electronic and thermal Free Energies=          -93.385646
 
                     E (Thermal)             CV                S
                      KCal/Mol        Cal/Mol-Kelvin    Cal/Mol-Kelvin
 Total                    8.500              5.972             52.147
 Electronic               0.000              0.000              0.000
 Translational            0.889              2.981             35.816
 Rotational               0.889              2.981             16.330
 Vibrational              6.722              0.010              0.001
                       Q            Log10(Q)             Ln(Q)
 Total Bot       0.539603D+05          4.732074         10.896004
 Total V=0       0.456222D+10          9.659177         22.241076
 Vib (Bot)       0.118282D-04         -4.927081        -11.345024
 Vib (V=0)       0.100005D+01          0.000021          0.000049
 Electronic      0.100000D+01          0.000000          0.000000
 Translational   0.551777D+07          6.741764         15.523485
 Rotational      0.826783D+03          2.917392          6.717542
 
                                                           point 1 reverse
                                                             IR Spectrum
 
      2                          2                                                                                                   
      6                          0                                                                                                   
      3                          7                                                                                                   
      2                          0                                                                                                   
 
      X                          X                                                                                                   
      X                                                                                                                              
      X                                                                                                                              
      X                                                                                                                              
      X                                                                                                                              
      X                                                                                                                              
      X                                                                                                                              
      X                                                                                                                              
      X                                                                                                                              
      X                                                                                                                              
      X                                                                                                                              
      X                                                                                                                              
      X                                                                                                                              
      X                                                                                                                              
      X                                                                                                                              
      X                                                                                                                              
      X                                                                                                                              
      X                                                                                                                              
      X                                                                                                                              
      X                                                                                                                              
 
 ***** Axes restored to original set *****
 -------------------------------------------------------------------
 Center     Atomic                   Forces (Hartrees/Bohr)
 Number     Number              X              Y              Z
 -------------------------------------------------------------------
      1        6           0.002499449    0.000000000    0.001938283
      2        7          -0.002887672    0.000000000    0.000945996
      3        1           0.000388224    0.000000000   -0.002884279
 -------------------------------------------------------------------
 Cartesian Forces:  Max     0.002887672 RMS     0.001754598
 Z-matrix is all fixed cartesians, so copy forces.
 Force constants in Cartesian coordinates: 
                1             2             3             4             5 
      1  0.128137D+00
      2  0.000000D+00  0.168088D-02
      3 -0.394420D-01  0.000000D+00  0.998638D+00
      4  0.747070D-01  0.000000D+00  0.641255D-01 -0.300071D-01
      5  0.000000D+00 -0.527274D-03  0.000000D+00  0.000000D+00 -0.804774D-03
      6  0.214361D-01  0.000000D+00 -0.105280D+01 -0.196671D-01  0.000000D+00
      7 -0.202844D+00  0.000000D+00 -0.246835D-01 -0.446999D-01  0.000000D+00
      8  0.000000D+00 -0.115361D-02  0.000000D+00  0.000000D+00  0.133205D-02
      9  0.180059D-01  0.000000D+00  0.541615D-01 -0.444584D-01  0.000000D+00
                6             7             8             9 
      6  0.106825D+01
      7 -0.176898D-02  0.247544D+00
      8  0.000000D+00  0.000000D+00 -0.178440D-03
      9 -0.154505D-01  0.264525D-01  0.000000D+00 -0.387110D-01
 Leave Link  716 at Thu Apr 14 13:06:42 2016, MaxMem=   104857600 cpu:         0.0
 (Enter /home/projets/algogen/g09.D01/g09/l103.exe)

 GradGradGradGradGradGradGradGradGradGradGradGradGradGradGradGradGradGrad
 Berny optimization.
 Search for a local minimum.
 Step number   1 out of a maximum of    2
 All quantities printed in internal units (Hartrees-Bohrs-Radians)
 Second derivative matrix not updated -- analytic derivatives used.
 The second derivative matrix:
                          X1        Y1        Z1        X2        Y2
           X1           0.12814
           Y1           0.00000   0.00168
           Z1          -0.03944   0.00000   0.99864
           X2           0.07471   0.00000   0.06413  -0.03001
           Y2           0.00000  -0.00053   0.00000   0.00000  -0.00080
           Z2           0.02144   0.00000  -1.05280  -0.01967   0.00000
           X3          -0.20284   0.00000  -0.02468  -0.04470   0.00000
           Y3           0.00000  -0.00115   0.00000   0.00000   0.00133
           Z3           0.01801   0.00000   0.05416  -0.04446   0.00000
                          Z2        X3        Y3        Z3
           Z2           1.06825
           X3          -0.00177   0.24754
           Y3           0.00000   0.00000  -0.00018
           Z3          -0.01545   0.02645   0.00000  -0.03871
 ITU=  0
     Eigenvalues ---   -0.10743   0.36521   2.08569
 Eigenvalue     1 is  -1.07D-01 should be greater than     0.000000 Eigenvector:
                          Z3        X2        X1        Z1        X3
   1                    0.84909   0.32876  -0.27733  -0.19517  -0.19051
                          Z2        Y2        Y1        Y3
   1                   -0.14023   0.00000   0.00000   0.00000
 Angle between quadratic step and forces=  26.66 degrees.
 ClnCor:  largest displacement from symmetrization is 6.16D-33 for atom     2.
 Linear search not attempted -- first point.
 ClnCor:  largest displacement from symmetrization is 2.26D-16 for atom     2.
 TrRot= -0.002921  0.000000  0.004007  0.000000 -0.005463  0.000000
 Variable       Old X    -DE/DX   Delta X   Delta X   Delta X     New X
                                 (Linear)    (Quad)   (Total)
    X1       -0.07549   0.00250   0.00000   0.01266   0.01615  -0.05933
    Y1        0.00000   0.00000   0.00000   0.00000   0.00000   0.00000
    Z1       -1.18274   0.00194   0.00000   0.00873   0.01241  -1.17033
    X2       -0.08400  -0.00289   0.00000  -0.01420  -0.02290  -0.10690
    Y2        0.00000   0.00000   0.00000   0.00000   0.00000   0.00000
    Z2        1.05234   0.00095   0.00000   0.00597   0.00942   1.06176
    X3        2.06595   0.00039   0.00000   0.00655   0.00674   2.07270
    Y3        0.00000   0.00000   0.00000   0.00000   0.00000   0.00000
    Z3       -0.53878  -0.00288   0.00000  -0.03717  -0.02183  -0.56061
         Item               Value     Threshold  Converged?
 Maximum Force            0.002888     0.000450     NO 
 RMS     Force            0.001755     0.000300     NO 
 Maximum Displacement     0.022899     0.001800     NO 
 RMS     Displacement     0.013125     0.001200     NO 
 Predicted change in Energy=-3.062037D-04
 GradGradGradGradGradGradGradGradGradGradGradGradGradGradGradGradGradGrad

 Leave Link  103 at Thu Apr 14 13:06:42 2016, MaxMem=   104857600 cpu:         0.0
 (Enter /home/projets/algogen/g09.D01/g09/l9999.exe)

 Test job not archived.
 1\1\GINC-ROMEO103\Freq\RB3LYP\6-311G(d,p)\C1H1N1\ROOT\14-Apr-2016\0\\#
 P B3LYP 6-311G** FREQ # POP=full GFINPUT IOP(6/7=3)\\point 1 reverse\\
 0,1\C,-0.039945,0.,-0.625881\N,-0.044452,0.,0.556872\H,1.093256,0.,-0.
 285109\\Version=ES64L-G09RevD.01\State=1-A'\HF=-93.3753581\RMSD=3.584e
 -09\RMSF=1.755e-03\ZeroPoint=0.0107119\Thermal=0.0135449\Dipole=0.4954
 675,0.,-0.0534073\DipoleDeriv=-0.247921,0.,-0.0066012,0.,-0.1405655,0.
 ,0.2119822,0.,-0.1557644,-0.1201835,0.,0.1111068,0.,-0.0904361,0.,-0.2
 212903,0.,-0.1595006,0.3681045,0.,-0.1045056,0.,0.2310016,0.,0.0093081
 ,0.,0.3152649\Polar=14.0566343,0.,10.2578169,0.1112671,0.,18.6189702\P
 G=CS [SG(C1H1N1)]\NImag=1\\0.12813724,0.,0.00168088,-0.03944201,0.,0.9
 9863835,0.07470696,0.,0.06412550,-0.03000706,0.,-0.00052727,0.,0.,-0.0
 0080477,0.02143612,0.,-1.05279983,-0.01966714,0.,1.06825028,-0.2028442
 0,0.,-0.02468349,-0.04469990,0.,-0.00176898,0.24754410,0.,-0.00115361,
 0.,0.,0.00133205,0.,0.,-0.00017844,0.01800589,0.,0.05416147,-0.0444583
 7,0.,-0.01545045,0.02645247,0.,-0.03871102\\-0.00249945,0.,-0.00193828
 ,0.00288767,0.,-0.00094600,-0.00038822,0.,0.00288428\\\@


 ANYONE WHO IS NOT SHOCKED BY QUANTUM THEORY HAS
 NOT UNDERSTOOD IT. -- NIELS BOHR(1885-1962)
 Job cpu time:       0 days  0 hours  0 minutes  5.4 seconds.
 File lengths (MBytes):  RWF=      5 Int=      0 D2E=      0 Chk=      1 Scr=      1
 Normal termination of Gaussian 09 at Thu Apr 14 13:06:42 2016.
************
total 116
drwxrwxr-x 2 henon henon   4096 14 avril 13:06 .
drwxrwxr-x 3 henon henon   4096 14 avril 13:06 ..
-rw-r--r-- 1 henon henon    267 14 avril 13:06 rev1.inp
-rw-rw-r-- 1 henon henon 104651 14 avril 13:06 rev1.out
Run on 1 cores
romeo103
************
