total 12
drwxrwxr-x 2 henon henon 4096 14 avril 13:06 .
drwxrwxr-x 3 henon henon 4096 14 avril 13:06 ..
-rw-r--r-- 1 henon henon  267 14 avril 13:06 rev2.inp
-rw-rw-r-- 1 henon henon    0 14 avril 13:06 rev2.out
 Entering Gaussian System, Link 0=g09
 Initial command:
 /home/projets/algogen/g09.D01/g09/l1.exe "/scratch_l/henon/rev2_31478/Gau-31496.inp" -scrdir="/scratch_l/henon/rev2_31478/"
 Entering Link 1 = /home/projets/algogen/g09.D01/g09/l1.exe PID=     31497.
  
 Copyright (c) 1988,1990,1992,1993,1995,1998,2003,2009,2013,
            Gaussian, Inc.  All Rights Reserved.
  
 This is part of the Gaussian(R) 09 program.  It is based on
 the Gaussian(R) 03 system (copyright 2003, Gaussian, Inc.),
 the Gaussian(R) 98 system (copyright 1998, Gaussian, Inc.),
 the Gaussian(R) 94 system (copyright 1995, Gaussian, Inc.),
 the Gaussian 92(TM) system (copyright 1992, Gaussian, Inc.),
 the Gaussian 90(TM) system (copyright 1990, Gaussian, Inc.),
 the Gaussian 88(TM) system (copyright 1988, Gaussian, Inc.),
 the Gaussian 86(TM) system (copyright 1986, Carnegie Mellon
 University), and the Gaussian 82(TM) system (copyright 1983,
 Carnegie Mellon University). Gaussian is a federally registered
 trademark of Gaussian, Inc.
  
 This software contains proprietary and confidential information,
 including trade secrets, belonging to Gaussian, Inc.
  
 This software is provided under written license and may be
 used, copied, transmitted, or stored only in accord with that
 written license.
  
 The following legend is applicable only to US Government
 contracts under FAR:
  
                    RESTRICTED RIGHTS LEGEND
  
 Use, reproduction and disclosure by the US Government is
 subject to restrictions as set forth in subparagraphs (a)
 and (c) of the Commercial Computer Software - Restricted
 Rights clause in FAR 52.227-19.
  
 Gaussian, Inc.
 340 Quinnipiac St., Bldg. 40, Wallingford CT 06492
  
  
 ---------------------------------------------------------------
 Warning -- This program may not be used in any manner that
 competes with the business of Gaussian, Inc. or will provide
 assistance to any competitor of Gaussian, Inc.  The licensee
 of this program is prohibited from giving any competitor of
 Gaussian, Inc. access to this program.  By using this program,
 the user acknowledges that Gaussian, Inc. is engaged in the
 business of creating and licensing software in the field of
 computational chemistry and represents and warrants to the
 licensee that it is not a competitor of Gaussian, Inc. and that
 it will not use this program in any manner prohibited above.
 ---------------------------------------------------------------
  

 Cite this work as:
 Gaussian 09, Revision D.01,
 M. J. Frisch, G. W. Trucks, H. B. Schlegel, G. E. Scuseria, 
 M. A. Robb, J. R. Cheeseman, G. Scalmani, V. Barone, B. Mennucci, 
 G. A. Petersson, H. Nakatsuji, M. Caricato, X. Li, H. P. Hratchian, 
 A. F. Izmaylov, J. Bloino, G. Zheng, J. L. Sonnenberg, M. Hada, 
 M. Ehara, K. Toyota, R. Fukuda, J. Hasegawa, M. Ishida, T. Nakajima, 
 Y. Honda, O. Kitao, H. Nakai, T. Vreven, J. A. Montgomery, Jr., 
 J. E. Peralta, F. Ogliaro, M. Bearpark, J. J. Heyd, E. Brothers, 
 K. N. Kudin, V. N. Staroverov, T. Keith, R. Kobayashi, J. Normand, 
 K. Raghavachari, A. Rendell, J. C. Burant, S. S. Iyengar, J. Tomasi, 
 M. Cossi, N. Rega, J. M. Millam, M. Klene, J. E. Knox, J. B. Cross, 
 V. Bakken, C. Adamo, J. Jaramillo, R. Gomperts, R. E. Stratmann, 
 O. Yazyev, A. J. Austin, R. Cammi, C. Pomelli, J. W. Ochterski, 
 R. L. Martin, K. Morokuma, V. G. Zakrzewski, G. A. Voth, 
 P. Salvador, J. J. Dannenberg, S. Dapprich, A. D. Daniels, 
 O. Farkas, J. B. Foresman, J. V. Ortiz, J. Cioslowski, 
 and D. J. Fox, Gaussian, Inc., Wallingford CT, 2013.
 
 ******************************************
 Gaussian 09:  ES64L-G09RevD.01 24-Apr-2013
                14-Apr-2016 
 ******************************************
 %NPROC=1
 Will use up to    1 processors via shared memory.
 %MEM=800MB
 ----------------------------------------------------
 #P B3LYP 6-311G** FREQ # POP=full GFINPUT IOP(6/7=3)
 ----------------------------------------------------
 1/10=4,30=1,38=1/1,3;
 2/12=2,17=6,18=5,40=1/2;
 3/5=4,6=6,7=101,11=2,16=1,24=10,25=1,30=1,71=2,74=-5,140=1/1,2,3;
 4//1;
 5/5=2,38=5,98=1/2;
 8/6=4,10=90,11=11/1;
 11/6=1,8=1,9=11,15=111,16=1/1,2,10;
 10/6=1/2;
 6/7=3,18=1,28=1/1;
 7/8=1,10=1,25=1/1,2,3,16;
 1/10=4,30=1/3;
 99//99;
 Leave Link    1 at Thu Apr 14 13:06:36 2016, MaxMem=   104857600 cpu:         0.0
 (Enter /home/projets/algogen/g09.D01/g09/l101.exe)
 ---------------
 point 2 reverse
 ---------------
 Symbolic Z-matrix:
 Charge =  0 Multiplicity = 1
 6                    -0.03766   0.       -0.62411 
 7                    -0.0467    0.        0.5576 
 1                     1.09726   0.       -0.31634 
 
 NAtoms=      3 NQM=        3 NQMF=       0 NMMI=      0 NMMIF=      0
                NMic=       0 NMicF=      0.
                    Isotopes and Nuclear Properties:
 (Nuclear quadrupole moments (NQMom) in fm**2, nuclear magnetic moments (NMagM)
  in nuclear magnetons)

  Atom         1           2           3
 IAtWgt=          12          14           1
 AtmWgt=  12.0000000  14.0030740   1.0078250
 NucSpn=           0           2           1
 AtZEff=   0.0000000   0.0000000   0.0000000
 NQMom=    0.0000000   2.0440000   0.0000000
 NMagM=    0.0000000   0.4037610   2.7928460
 AtZNuc=   6.0000000   7.0000000   1.0000000
 Leave Link  101 at Thu Apr 14 13:06:36 2016, MaxMem=   104857600 cpu:         0.1
 (Enter /home/projets/algogen/g09.D01/g09/l103.exe)

 GradGradGradGradGradGradGradGradGradGradGradGradGradGradGradGradGradGrad
 Berny optimization.
 Initialization pass.
 Trust Radius=3.00D-01 FncErr=1.00D-07 GrdErr=1.00D-07
 Number of steps in this run=      2 maximum allowed number of steps=      2.
 GradGradGradGradGradGradGradGradGradGradGradGradGradGradGradGradGradGrad

 Leave Link  103 at Thu Apr 14 13:06:36 2016, MaxMem=   104857600 cpu:         0.0
 (Enter /home/projets/algogen/g09.D01/g09/l202.exe)
                          Input orientation:                          
 ---------------------------------------------------------------------
 Center     Atomic      Atomic             Coordinates (Angstroms)
 Number     Number       Type             X           Y           Z
 ---------------------------------------------------------------------
      1          6           0       -0.037663    0.000000   -0.624113
      2          7           0       -0.046696    0.000000    0.557604
      3          1           0        1.097264    0.000000   -0.316340
 ---------------------------------------------------------------------
                    Distance matrix (angstroms):
                    1          2          3
     1  C    0.000000
     2  N    1.181752   0.000000
     3  H    1.175918   1.439591   0.000000
 Stoichiometry    CHN
 Framework group  CS[SG(CHN)]
 Deg. of freedom     3
 Full point group                 CS      NOp   2
 Largest Abelian subgroup         CS      NOp   2
 Largest concise Abelian subgroup C1      NOp   1
                         Standard orientation:                         
 ---------------------------------------------------------------------
 Center     Atomic      Atomic             Coordinates (Angstroms)
 Number     Number       Type             X           Y           Z
 ---------------------------------------------------------------------
      1          6           0        0.081232    0.612239    0.000000
      2          7           0        0.081232   -0.569512    0.000000
      3          1           0       -1.056014    0.313150    0.000000
 ---------------------------------------------------------------------
 Rotational constants (GHZ):    408.4605472     55.2169069     48.6414162
 Leave Link  202 at Thu Apr 14 13:06:36 2016, MaxMem=   104857600 cpu:         0.0
 (Enter /home/projets/algogen/g09.D01/g09/l301.exe)
 Standard basis: 6-311G(d,p) (5D, 7F)
 Ernie: Thresh=  0.10000D-02 Tol=  0.10000D-05 Strict=F.
 AO basis set in the form of general basis input (Overlap normalization):
      1 0
 S   6 1.00       0.000000000000
      0.4563240000D+04  0.1966650249D-02
      0.6820240000D+03  0.1523060193D-01
      0.1549730000D+03  0.7612690966D-01
      0.4445530000D+02  0.2608010331D+00
      0.1302900000D+02  0.6164620782D+00
      0.1827730000D+01  0.2210060280D+00
 SP   3 1.00       0.000000000000
      0.2096420000D+02  0.1146600807D+00  0.4024869267D-01
      0.4803310000D+01  0.9199996477D+00  0.2375939567D+00
      0.1459330000D+01 -0.3030682134D-02  0.8158538515D+00
 SP   1 1.00       0.000000000000
      0.4834560000D+00  0.1000000000D+01  0.1000000000D+01
 SP   1 1.00       0.000000000000
      0.1455850000D+00  0.1000000000D+01  0.1000000000D+01
 D   1 1.00       0.000000000000
      0.6260000000D+00  0.1000000000D+01
 ****
      2 0
 S   6 1.00       0.000000000000
      0.6293480000D+04  0.1969788147D-02
      0.9490440000D+03  0.1496128592D-01
      0.2187760000D+03  0.7350053084D-01
      0.6369160000D+02  0.2489367658D+00
      0.1882820000D+02  0.6024594331D+00
      0.2720230000D+01  0.2562017589D+00
 SP   3 1.00       0.000000000000
      0.3063310000D+02  0.1119060795D+00  0.3831191864D-01
      0.7026140000D+01  0.9216666549D+00  0.2374031155D+00
      0.2112050000D+01 -0.2569191826D-02  0.8175923978D+00
 SP   1 1.00       0.000000000000
      0.6840090000D+00  0.1000000000D+01  0.1000000000D+01
 SP   1 1.00       0.000000000000
      0.2008780000D+00  0.1000000000D+01  0.1000000000D+01
 D   1 1.00       0.000000000000
      0.9130000000D+00  0.1000000000D+01
 ****
      3 0
 S   3 1.00       0.000000000000
      0.3386500000D+02  0.2549381454D-01
      0.5094790000D+01  0.1903731086D+00
      0.1158790000D+01  0.8521614860D+00
 S   1 1.00       0.000000000000
      0.3258400000D+00  0.1000000000D+01
 S   1 1.00       0.000000000000
      0.1027410000D+00  0.1000000000D+01
 P   1 1.00       0.000000000000
      0.7500000000D+00  0.1000000000D+01
 ****

 There are    33 symmetry adapted cartesian basis functions of A'  symmetry.
 There are    11 symmetry adapted cartesian basis functions of A"  symmetry.
 There are    31 symmetry adapted basis functions of A'  symmetry.
 There are    11 symmetry adapted basis functions of A"  symmetry.
    42 basis functions,    72 primitive gaussians,    44 cartesian basis functions
     7 alpha electrons        7 beta electrons
       nuclear repulsion energy        24.0803961150 Hartrees.
 IExCor=  402 DFT=T Ex+Corr=B3LYP ExCW=0 ScaHFX=  0.200000
 ScaDFX=  0.800000  0.720000  1.000000  0.810000 ScalE2=  1.000000  1.000000
 IRadAn=      0 IRanWt=     -1 IRanGd=            0 ICorTp=0 IEmpDi=  4
 NAtoms=    3 NActive=    3 NUniq=    3 SFac= 1.00D+00 NAtFMM=   60 NAOKFM=F Big=F
 Integral buffers will be    131072 words long.
 Raffenetti 2 integral format.
 Two-electron integral symmetry is turned on.
 Leave Link  301 at Thu Apr 14 13:06:37 2016, MaxMem=   104857600 cpu:         0.0
 (Enter /home/projets/algogen/g09.D01/g09/l302.exe)
 NPDir=0 NMtPBC=     1 NCelOv=     1 NCel=       1 NClECP=     1 NCelD=      1
         NCelK=      1 NCelE2=     1 NClLst=     1 CellRange=     0.0.
 One-electron integrals computed using PRISM.
 NBasis=    42 RedAO= T EigKep=  8.60D-03  NBF=    31    11
 NBsUse=    42 1.00D-06 EigRej= -1.00D+00 NBFU=    31    11
 Precomputing XC quadrature grid using
 IXCGrd= 4 IRadAn=           0 IRanWt=          -1 IRanGd=           0 AccXCQ= 0.00D+00.
 Generated NRdTot=       0 NPtTot=           0 NUsed=           0 NTot=          32
 NSgBfM=    44    44    44    44    44 MxSgAt=     3 MxSgA2=     3.
 Leave Link  302 at Thu Apr 14 13:06:37 2016, MaxMem=   104857600 cpu:         0.1
 (Enter /home/projets/algogen/g09.D01/g09/l303.exe)
 DipDrv:  MaxL=1.
 Leave Link  303 at Thu Apr 14 13:06:37 2016, MaxMem=   104857600 cpu:         0.0
 (Enter /home/projets/algogen/g09.D01/g09/l401.exe)
 ExpMin= 1.03D-01 ExpMax= 6.29D+03 ExpMxC= 9.49D+02 IAcc=1 IRadAn=         1 AccDes= 0.00D+00
 Harris functional with IExCor=  402 and IRadAn=       1 diagonalized for initial guess.
 HarFok:  IExCor=  402 AccDes= 0.00D+00 IRadAn=         1 IDoV= 1 UseB2=F ITyADJ=14
 ICtDFT=  3500011 ScaDFX=  1.000000  1.000000  1.000000  1.000000
 FoFCou: FMM=F IPFlag=           0 FMFlag=      100000 FMFlg1=           0
         NFxFlg=           0 DoJE=T BraDBF=F KetDBF=T FulRan=T
         wScrn=  0.000000 ICntrl=     500 IOpCl=  0 I1Cent=   200000004 NGrid=           0
         NMat0=    1 NMatS0=      1 NMatT0=    0 NMatD0=    1 NMtDS0=    0 NMtDT0=    0
 Petite list used in FoFCou.
 Harris En= -93.3728151831674    
 JPrj=0 DoOrth=F DoCkMO=F.
 Initial guess orbital symmetries:
       Occupied  (A') (A') (A') (A') (A') (A") (A')
       Virtual   (A') (A") (A') (A') (A') (A") (A') (A') (A') (A')
                 (A") (A') (A") (A') (A') (A") (A') (A') (A") (A')
                 (A") (A') (A') (A') (A") (A') (A") (A') (A') (A')
                 (A") (A') (A') (A') (A')
 The electronic state of the initial guess is 1-A'.
 Leave Link  401 at Thu Apr 14 13:06:37 2016, MaxMem=   104857600 cpu:         0.1
 (Enter /home/projets/algogen/g09.D01/g09/l502.exe)
 Closed shell SCF:
 Using DIIS extrapolation, IDIIS=  1040.
 Integral symmetry usage will be decided dynamically.
 Keep R1 ints in memory in symmetry-blocked form, NReq=1300126.
 IVT=       24966 IEndB=       24966 NGot=   104857600 MDV=   104613769
 LenX=   104613769 LenY=   104611392
 Requested convergence on RMS density matrix=1.00D-08 within 128 cycles.
 Requested convergence on MAX density matrix=1.00D-06.
 Requested convergence on             energy=1.00D-06.
 No special actions if energy rises.
 FoFCou: FMM=F IPFlag=           0 FMFlag=           0 FMFlg1=           0
         NFxFlg=           0 DoJE=F BraDBF=F KetDBF=F FulRan=T
         wScrn=  0.000000 ICntrl=     600 IOpCl=  0 I1Cent=           0 NGrid=           0
         NMat0=    1 NMatS0=    903 NMatT0=    0 NMatD0=    1 NMtDS0=    0 NMtDT0=    0
 Petite list used in FoFCou.
 Integral accuracy reduced to 1.0D-05 until final iterations.

 Cycle   1  Pass 0  IDiag  1:
 E= -93.3489485921276    
 DIIS: error= 2.56D-02 at cycle   1 NSaved=   1.
 NSaved= 1 IEnMin= 1 EnMin= -93.3489485921276     IErMin= 1 ErrMin= 2.56D-02
 ErrMax= 2.56D-02  0.00D+00 EMaxC= 1.00D-01 BMatC= 3.15D-02 BMatP= 3.15D-02
 IDIUse=3 WtCom= 7.44D-01 WtEn= 2.56D-01
 Coeff-Com:  0.100D+01
 Coeff-En:   0.100D+01
 Coeff:      0.100D+01
 Gap=     0.265 Goal=   None    Shift=    0.000
 GapD=    0.265 DampG=1.000 DampE=0.500 DampFc=0.5000 IDamp=-1.
 Damping current iteration by 5.00D-01
 RMSDP=5.72D-03 MaxDP=8.39D-02              OVMax= 1.05D-01

 Cycle   2  Pass 0  IDiag  1:
 E= -93.3628191879633     Delta-E=       -0.013870595836 Rises=F Damp=T
 DIIS: error= 4.59D-03 at cycle   2 NSaved=   2.
 NSaved= 2 IEnMin= 2 EnMin= -93.3628191879633     IErMin= 2 ErrMin= 4.59D-03
 ErrMax= 4.59D-03  0.00D+00 EMaxC= 1.00D-01 BMatC= 1.62D-03 BMatP= 3.15D-02
 IDIUse=3 WtCom= 9.54D-01 WtEn= 4.59D-02
 Coeff-Com: -0.144D+00 0.114D+01
 Coeff-En:   0.000D+00 0.100D+01
 Coeff:     -0.138D+00 0.114D+01
 Gap=     0.276 Goal=   None    Shift=    0.000
 RMSDP=7.38D-04 MaxDP=5.85D-03 DE=-1.39D-02 OVMax= 5.36D-02

 Cycle   3  Pass 0  IDiag  1:
 E= -93.3754464919050     Delta-E=       -0.012627303942 Rises=F Damp=F
 DIIS: error= 2.49D-03 at cycle   3 NSaved=   3.
 NSaved= 3 IEnMin= 3 EnMin= -93.3754464919050     IErMin= 3 ErrMin= 2.49D-03
 ErrMax= 2.49D-03  0.00D+00 EMaxC= 1.00D-01 BMatC= 2.33D-04 BMatP= 1.62D-03
 IDIUse=3 WtCom= 9.75D-01 WtEn= 2.49D-02
 Coeff-Com: -0.805D-01 0.266D+00 0.815D+00
 Coeff-En:   0.000D+00 0.000D+00 0.100D+01
 Coeff:     -0.785D-01 0.259D+00 0.819D+00
 Gap=     0.274 Goal=   None    Shift=    0.000
 RMSDP=3.59D-04 MaxDP=3.75D-03 DE=-1.26D-02 OVMax= 9.53D-03

 Cycle   4  Pass 0  IDiag  1:
 E= -93.3754329933963     Delta-E=        0.000013498509 Rises=F Damp=F
 DIIS: error= 4.15D-03 at cycle   4 NSaved=   4.
 NSaved= 4 IEnMin= 3 EnMin= -93.3754464919050     IErMin= 3 ErrMin= 2.49D-03
 ErrMax= 4.15D-03  0.00D+00 EMaxC= 1.00D-01 BMatC= 2.68D-04 BMatP= 2.33D-04
 IDIUse=3 WtCom= 1.34D-01 WtEn= 8.66D-01
 Coeff-Com: -0.469D-01 0.114D+00 0.578D+00 0.355D+00
 Coeff-En:   0.000D+00 0.000D+00 0.514D+00 0.486D+00
 Coeff:     -0.631D-02 0.153D-01 0.523D+00 0.468D+00
 Gap=     0.271 Goal=   None    Shift=    0.000
 RMSDP=3.21D-04 MaxDP=4.32D-03 DE= 1.35D-05 OVMax= 8.35D-03

 Cycle   5  Pass 0  IDiag  1:
 E= -93.3755947634696     Delta-E=       -0.000161770073 Rises=F Damp=F
 DIIS: error= 1.71D-03 at cycle   5 NSaved=   5.
 NSaved= 5 IEnMin= 5 EnMin= -93.3755947634696     IErMin= 5 ErrMin= 1.71D-03
 ErrMax= 1.71D-03  0.00D+00 EMaxC= 1.00D-01 BMatC= 7.58D-05 BMatP= 2.33D-04
 IDIUse=3 WtCom= 9.83D-01 WtEn= 1.71D-02
 Coeff-Com: -0.526D-02 0.767D-02 0.236D+00 0.329D+00 0.432D+00
 Coeff-En:   0.000D+00 0.000D+00 0.000D+00 0.277D+00 0.723D+00
 Coeff:     -0.517D-02 0.754D-02 0.232D+00 0.328D+00 0.437D+00
 Gap=     0.273 Goal=   None    Shift=    0.000
 RMSDP=1.48D-04 MaxDP=1.98D-03 DE=-1.62D-04 OVMax= 3.02D-03

 Cycle   6  Pass 0  IDiag  1:
 E= -93.3756681810789     Delta-E=       -0.000073417609 Rises=F Damp=F
 DIIS: error= 4.10D-05 at cycle   6 NSaved=   6.
 NSaved= 6 IEnMin= 6 EnMin= -93.3756681810789     IErMin= 6 ErrMin= 4.10D-05
 ErrMax= 4.10D-05  0.00D+00 EMaxC= 1.00D-01 BMatC= 5.79D-08 BMatP= 7.58D-05
 IDIUse=1 WtCom= 1.00D+00 WtEn= 0.00D+00
 Coeff-Com:  0.195D-02-0.441D-02-0.511D-02 0.203D-01 0.576D-01 0.930D+00
 Coeff:      0.195D-02-0.441D-02-0.511D-02 0.203D-01 0.576D-01 0.930D+00
 Gap=     0.273 Goal=   None    Shift=    0.000
 RMSDP=6.00D-06 MaxDP=1.07D-04 DE=-7.34D-05 OVMax= 1.11D-04

 Initial convergence to 1.0D-05 achieved.  Increase integral accuracy.
 Cycle   7  Pass 1  IDiag  1:
 E= -93.3756650282385     Delta-E=        0.000003152840 Rises=F Damp=F
 DIIS: error= 5.80D-06 at cycle   1 NSaved=   1.
 NSaved= 1 IEnMin= 1 EnMin= -93.3756650282385     IErMin= 1 ErrMin= 5.80D-06
 ErrMax= 5.80D-06  0.00D+00 EMaxC= 1.00D-01 BMatC= 1.48D-09 BMatP= 1.48D-09
 IDIUse=1 WtCom= 1.00D+00 WtEn= 0.00D+00
 Coeff-Com:  0.100D+01
 Coeff:      0.100D+01
 Gap=     0.273 Goal=   None    Shift=    0.000
 RMSDP=6.00D-06 MaxDP=1.07D-04 DE= 3.15D-06 OVMax= 3.16D-05

 Cycle   8  Pass 1  IDiag  1:
 E= -93.3756650286175     Delta-E=       -0.000000000379 Rises=F Damp=F
 DIIS: error= 7.64D-06 at cycle   2 NSaved=   2.
 NSaved= 2 IEnMin= 2 EnMin= -93.3756650286175     IErMin= 1 ErrMin= 5.80D-06
 ErrMax= 7.64D-06  0.00D+00 EMaxC= 1.00D-01 BMatC= 1.22D-09 BMatP= 1.48D-09
 IDIUse=1 WtCom= 1.00D+00 WtEn= 0.00D+00
 Coeff-Com:  0.469D+00 0.531D+00
 Coeff:      0.469D+00 0.531D+00
 Gap=     0.273 Goal=   None    Shift=    0.000
 RMSDP=7.40D-07 MaxDP=7.94D-06 DE=-3.79D-10 OVMax= 1.95D-05

 Cycle   9  Pass 1  IDiag  1:
 E= -93.3756650289111     Delta-E=       -0.000000000294 Rises=F Damp=F
 DIIS: error= 7.57D-06 at cycle   3 NSaved=   3.
 NSaved= 3 IEnMin= 3 EnMin= -93.3756650289111     IErMin= 1 ErrMin= 5.80D-06
 ErrMax= 7.57D-06  0.00D+00 EMaxC= 1.00D-01 BMatC= 8.50D-10 BMatP= 1.22D-09
 IDIUse=1 WtCom= 1.00D+00 WtEn= 0.00D+00
 Coeff-Com:  0.973D-01 0.434D+00 0.469D+00
 Coeff:      0.973D-01 0.434D+00 0.469D+00
 Gap=     0.273 Goal=   None    Shift=    0.000
 RMSDP=3.80D-07 MaxDP=3.49D-06 DE=-2.94D-10 OVMax= 1.15D-05

 Cycle  10  Pass 1  IDiag  1:
 E= -93.3756650296516     Delta-E=       -0.000000000741 Rises=F Damp=F
 DIIS: error= 2.51D-07 at cycle   4 NSaved=   4.
 NSaved= 4 IEnMin= 4 EnMin= -93.3756650296516     IErMin= 4 ErrMin= 2.51D-07
 ErrMax= 2.51D-07  0.00D+00 EMaxC= 1.00D-01 BMatC= 3.93D-12 BMatP= 8.50D-10
 IDIUse=1 WtCom= 1.00D+00 WtEn= 0.00D+00
 Coeff-Com: -0.102D-01 0.418D-01 0.957D-01 0.873D+00
 Coeff:     -0.102D-01 0.418D-01 0.957D-01 0.873D+00
 Gap=     0.273 Goal=   None    Shift=    0.000
 RMSDP=6.24D-08 MaxDP=6.26D-07 DE=-7.41D-10 OVMax= 1.74D-06

 Cycle  11  Pass 1  IDiag  1:
 E= -93.3756650296563     Delta-E=       -0.000000000005 Rises=F Damp=F
 DIIS: error= 1.16D-07 at cycle   5 NSaved=   5.
 NSaved= 5 IEnMin= 5 EnMin= -93.3756650296563     IErMin= 5 ErrMin= 1.16D-07
 ErrMax= 1.16D-07  0.00D+00 EMaxC= 1.00D-01 BMatC= 4.56D-13 BMatP= 3.93D-12
 IDIUse=1 WtCom= 1.00D+00 WtEn= 0.00D+00
 Coeff-Com: -0.872D-02-0.168D-02 0.167D-01 0.360D+00 0.633D+00
 Coeff:     -0.872D-02-0.168D-02 0.167D-01 0.360D+00 0.633D+00
 Gap=     0.273 Goal=   None    Shift=    0.000
 RMSDP=1.53D-08 MaxDP=2.61D-07 DE=-4.63D-12 OVMax= 3.34D-07

 Cycle  12  Pass 1  IDiag  1:
 E= -93.3756650296568     Delta-E=        0.000000000000 Rises=F Damp=F
 DIIS: error= 2.06D-08 at cycle   6 NSaved=   6.
 NSaved= 6 IEnMin= 6 EnMin= -93.3756650296568     IErMin= 6 ErrMin= 2.06D-08
 ErrMax= 2.06D-08  0.00D+00 EMaxC= 1.00D-01 BMatC= 8.61D-15 BMatP= 4.56D-13
 IDIUse=1 WtCom= 1.00D+00 WtEn= 0.00D+00
 Coeff-Com:  0.220D-03-0.562D-02-0.104D-01-0.536D-01 0.420D-01 0.103D+01
 Coeff:      0.220D-03-0.562D-02-0.104D-01-0.536D-01 0.420D-01 0.103D+01
 Gap=     0.273 Goal=   None    Shift=    0.000
 RMSDP=3.59D-09 MaxDP=5.15D-08 DE=-4.97D-13 OVMax= 8.83D-08

 SCF Done:  E(RB3LYP) =  -93.3756650297     A.U. after   12 cycles
            NFock= 12  Conv=0.36D-08     -V/T= 2.0032
 KE= 9.307412910200D+01 PE=-2.659975209190D+02 EE= 5.546733067235D+01
 Leave Link  502 at Thu Apr 14 13:06:38 2016, MaxMem=   104857600 cpu:         0.7
 (Enter /home/projets/algogen/g09.D01/g09/l801.exe)
 DoSCS=F DFT=T ScalE2(SS,OS)=  1.000000  1.000000
 Range of M.O.s used for correlation:     1    42
 NBasis=    42 NAE=     7 NBE=     7 NFC=     0 NFV=     0
 NROrb=     42 NOA=     7 NOB=     7 NVA=    35 NVB=    35
 Leave Link  801 at Thu Apr 14 13:06:38 2016, MaxMem=   104857600 cpu:         0.0
 (Enter /home/projets/algogen/g09.D01/g09/l1101.exe)
 Using compressed storage, NAtomX=     3.
 Will process      4 centers per pass.
 Leave Link 1101 at Thu Apr 14 13:06:38 2016, MaxMem=   104857600 cpu:         0.1
 (Enter /home/projets/algogen/g09.D01/g09/l1102.exe)
 Symmetrizing basis deriv contribution to polar:
 IMax=3 JMax=2 DiffMx= 0.00D+00
 Leave Link 1102 at Thu Apr 14 13:06:38 2016, MaxMem=   104857600 cpu:         0.0
 (Enter /home/projets/algogen/g09.D01/g09/l1110.exe)
 Forming Gx(P) for the SCF density, NAtomX=     3.
 Integral derivatives from FoFJK, PRISM(SPDF).
 Do as many integral derivatives as possible in FoFJK.
 G2DrvN: MDV=     104857472.
 G2DrvN: will do     4 centers at a time, making    1 passes.
 Calling FoFCou, ICntrl=  3107 FMM=F I1Cent=   0 AccDes= 0.00D+00.
 FoFJK:  IHMeth= 1 ICntrl=    3107 DoSepK=F KAlg= 0 I1Cent=   0 FoldK=F
 IRaf=         0 NMat=   1 IRICut=       1 DoRegI=T DoRafI=F ISym2E= 1.
 FoFCou: FMM=F IPFlag=           0 FMFlag=      100000 FMFlg1=           0
         NFxFlg=           0 DoJE=F BraDBF=F KetDBF=F FulRan=T
         wScrn=  0.000000 ICntrl=    3107 IOpCl=  0 I1Cent=           0 NGrid=           0
         NMat0=    1 NMatS0=      1 NMatT0=    0 NMatD0=    1 NMtDS0=    0 NMtDT0=    0
 Petite list used in FoFCou.
 End of G2Drv F.D. properties file   721 does not exist.
 End of G2Drv F.D. properties file   722 does not exist.
 End of G2Drv F.D. properties file   788 does not exist.
 Leave Link 1110 at Thu Apr 14 13:06:39 2016, MaxMem=   104857600 cpu:         0.8
 (Enter /home/projets/algogen/g09.D01/g09/l1002.exe)
 Minotr:  Closed shell wavefunction.
          IDoAtm=111
          Direct CPHF calculation.
          Differentiating once with respect to electric field.
                with respect to dipole field.
          Differentiating once with respect to nuclear coordinates.
          Using symmetry in CPHF.
          Requested convergence is 1.0D-08 RMS, and 1.0D-07 maximum.
          Secondary convergence is 1.0D-12 RMS, and 1.0D-12 maximum.
          NewPWx=T KeepS1=F KeepF1=F KeepIn=T MapXYZ=F SortEE=F KeepMc=T.
          MDV=     104857524 using IRadAn=       2.
 Generate precomputed XC quadrature information.
 Keep R1 ints in memory in symmetry-blocked form, NReq=1274720.
 FoFCou: FMM=F IPFlag=           0 FMFlag=           0 FMFlg1=           0
         NFxFlg=           0 DoJE=F BraDBF=F KetDBF=F FulRan=T
         wScrn=  0.000000 ICntrl=     600 IOpCl=  0 I1Cent=           0 NGrid=           0
         NMat0=    1 NMatS0=    903 NMatT0=    0 NMatD0=    1 NMtDS0=    0 NMtDT0=    0
 Petite list used in FoFCou.
          Solving linear equations simultaneously, MaxMat=       0.
          There are    12 degrees of freedom in the 1st order CPHF.  IDoFFX=6 NUNeed=     3.
      9 vectors produced by pass  0 Test12= 2.04D-15 8.33D-09 XBig12= 2.20D+01 2.89D+00.
 AX will form     9 AO Fock derivatives at one time.
      9 vectors produced by pass  1 Test12= 2.04D-15 8.33D-09 XBig12= 1.14D+01 1.25D+00.
      9 vectors produced by pass  2 Test12= 2.04D-15 8.33D-09 XBig12= 6.92D-02 8.33D-02.
      9 vectors produced by pass  3 Test12= 2.04D-15 8.33D-09 XBig12= 1.40D-04 3.66D-03.
      9 vectors produced by pass  4 Test12= 2.04D-15 8.33D-09 XBig12= 1.71D-07 1.16D-04.
      8 vectors produced by pass  5 Test12= 2.04D-15 8.33D-09 XBig12= 2.87D-10 5.10D-06.
      3 vectors produced by pass  6 Test12= 2.04D-15 8.33D-09 XBig12= 2.82D-13 1.37D-07.
 InvSVY:  IOpt=1 It=  1 EMax= 1.11D-15
 Solved reduced A of dimension    56 with     9 vectors.
 FullF1:  Do perturbations    1 to     3.
 Isotropic polarizability for W=    0.000000       14.33 Bohr**3.
 End of Minotr F.D. properties file   721 does not exist.
 End of Minotr F.D. properties file   722 does not exist.
 End of Minotr F.D. properties file   788 does not exist.
 Leave Link 1002 at Thu Apr 14 13:06:40 2016, MaxMem=   104857600 cpu:         1.1
 (Enter /home/projets/algogen/g09.D01/g09/l601.exe)
 Copying SCF densities to generalized density rwf, IOpCl= 0 IROHF=0.

 **********************************************************************

            Population analysis using the SCF density.

 **********************************************************************

 Orbital symmetries:
       Occupied  (A') (A') (A') (A') (A') (A") (A')
       Virtual   (A') (A") (A') (A') (A') (A") (A') (A') (A') (A')
                 (A") (A') (A") (A') (A') (A") (A') (A') (A") (A')
                 (A") (A') (A') (A') (A") (A') (A") (A') (A') (A')
                 (A") (A') (A') (A') (A')
 The electronic state is 1-A'.
 Alpha  occ. eigenvalues --  -14.38443 -10.23311  -0.99122  -0.53435  -0.45276
 Alpha  occ. eigenvalues --   -0.39235  -0.34652
 Alpha virt. eigenvalues --   -0.07374   0.00086   0.03829   0.21657   0.30573
 Alpha virt. eigenvalues --    0.39571   0.40783   0.52728   0.54991   0.63260
 Alpha virt. eigenvalues --    0.64027   0.73414   1.00560   1.02594   1.22257
 Alpha virt. eigenvalues --    1.35926   1.42932   1.59375   1.74425   1.88838
 Alpha virt. eigenvalues --    2.00073   2.12505   2.23349   2.35698   2.43810
 Alpha virt. eigenvalues --    2.67262   2.74062   2.82362   2.98219   3.20646
 Alpha virt. eigenvalues --    3.72115   3.80181   4.31934  23.92066  35.53470
     Molecular Orbital Coefficients:
                           1         2         3         4         5
                           O         O         O         O         O
     Eigenvalues --   -14.38443 -10.23311  -0.99122  -0.53435  -0.45276
   1 1   C  1S         -0.00007   0.56274  -0.07743   0.03896   0.06679
   2        2S          0.00059   0.46347  -0.11722   0.06246   0.10623
   3        2PX         0.00005  -0.00006  -0.01755   0.13376  -0.08950
   4        2PY        -0.00041  -0.00075  -0.10604  -0.05436   0.02633
   5        2PZ         0.00000   0.00000   0.00000   0.00000   0.00000
   6        3S         -0.00185   0.01806   0.29874  -0.17844  -0.30844
   7        3PX        -0.00030  -0.00246  -0.02469   0.19268  -0.12785
   8        3PY         0.00379  -0.00667  -0.12190  -0.06931   0.03982
   9        3PZ         0.00000   0.00000   0.00000   0.00000   0.00000
  10        4S          0.00333   0.00062   0.05550  -0.15132  -0.27618
  11        4PX         0.00013   0.00050  -0.00434   0.09471  -0.04887
  12        4PY        -0.00263  -0.00160   0.00200  -0.03722  -0.01439
  13        4PZ         0.00000   0.00000   0.00000   0.00000   0.00000
  14        5D 0        0.00116  -0.00256  -0.01515   0.00371   0.00091
  15        5D+1        0.00000   0.00000   0.00000   0.00000   0.00000
  16        5D-1        0.00000   0.00000   0.00000   0.00000   0.00000
  17        5D+2        0.00219  -0.00216  -0.01639  -0.02408   0.00785
  18        5D-2       -0.00004   0.00074   0.00730  -0.02637   0.01971
  19 2   N  1S          0.55725  -0.00026  -0.09773  -0.06154  -0.05281
  20        2S          0.46597   0.00020  -0.15368  -0.09856  -0.08485
  21        2PX        -0.00015   0.00004  -0.01140   0.11210  -0.11012
  22        2PY         0.00082   0.00087   0.09604  -0.04368  -0.17794
  23        2PZ         0.00000   0.00000   0.00000   0.00000   0.00000
  24        3S          0.01565  -0.00242   0.42012   0.28629   0.24605
  25        3PX        -0.00002  -0.00002  -0.01923   0.16638  -0.16675
  26        3PY         0.00358  -0.00516   0.12913  -0.05888  -0.23958
  27        3PZ         0.00000   0.00000   0.00000   0.00000   0.00000
  28        4S         -0.00796  -0.00682   0.26587   0.31214   0.36322
  29        4PX         0.00020   0.00004  -0.00872   0.09838  -0.12967
  30        4PY        -0.00232  -0.00270   0.05152  -0.04190  -0.16788
  31        4PZ         0.00000   0.00000   0.00000   0.00000   0.00000
  32        5D 0       -0.00068   0.00107  -0.01355   0.00343   0.00604
  33        5D+1        0.00000   0.00000   0.00000   0.00000   0.00000
  34        5D-1        0.00000   0.00000   0.00000   0.00000   0.00000
  35        5D+2       -0.00128   0.00213  -0.01600  -0.00095   0.02136
  36        5D-2        0.00003   0.00014  -0.00477   0.02071  -0.01670
  37 3   H  1S          0.00032   0.00000   0.06646  -0.15619   0.05243
  38        2S         -0.00050  -0.00284   0.07103  -0.24740   0.09899
  39        3S          0.00064   0.00186  -0.00425  -0.05068   0.07592
  40        4PX        -0.00011  -0.00233   0.01636  -0.02222   0.00459
  41        4PY        -0.00048  -0.00048  -0.00526  -0.00252  -0.01540
  42        4PZ         0.00000   0.00000   0.00000   0.00000   0.00000
                           6         7         8         9        10
                           O         O         V         V         V
     Eigenvalues --    -0.39235  -0.34652  -0.07374   0.00086   0.03829
   1 1   C  1S          0.00000  -0.04927   0.02945   0.00000   0.02705
   2        2S          0.00000  -0.07976   0.04694   0.00000   0.04271
   3        2PX         0.00000   0.03718  -0.10330   0.00000   0.18806
   4        2PY         0.00000   0.21068  -0.04929   0.00000  -0.03607
   5        2PZ         0.17071   0.00000   0.00000   0.22145   0.00000
   6        3S          0.00000   0.21605  -0.12531   0.00000  -0.10410
   7        3PX         0.00000   0.04682  -0.15311   0.00000   0.25761
   8        3PY         0.00000   0.27606  -0.07039   0.00000  -0.02778
   9        3PZ         0.25242   0.00000   0.00000   0.33314   0.00000
  10        4S          0.00000   0.48308  -0.34521   0.00000  -0.98361
  11        4PX         0.00000   0.04170  -0.22653   0.00000   0.81903
  12        4PY         0.00000   0.13720  -0.12530   0.00000  -0.00928
  13        4PZ         0.18285   0.00000   0.00000   0.66195   0.00000
  14        5D 0        0.00000   0.00963  -0.00936   0.00000   0.00442
  15        5D+1       -0.00863   0.00000   0.00000  -0.01176   0.00000
  16        5D-1       -0.04424   0.00000   0.00000   0.01861   0.00000
  17        5D+2        0.00000   0.02410   0.01709   0.00000   0.01513
  18        5D-2        0.00000  -0.01934  -0.02733   0.00000  -0.00554
  19 2   N  1S          0.00000  -0.00576   0.00702   0.00000   0.01981
  20        2S          0.00000  -0.00885   0.01097   0.00000   0.03223
  21        2PX         0.00000   0.07436   0.24863   0.00000  -0.03300
  22        2PY         0.00000  -0.17464  -0.00597   0.00000   0.01723
  23        2PZ         0.22769   0.00000   0.00000  -0.21090   0.00000
  24        3S          0.00000   0.02359  -0.02305   0.00000  -0.10711
  25        3PX         0.00000   0.11025   0.35367   0.00000  -0.04679
  26        3PY         0.00000  -0.23820  -0.01398   0.00000   0.03198
  27        3PZ         0.33421   0.00000   0.00000  -0.29064   0.00000
  28        4S          0.00000   0.04333  -0.16180   0.00000  -0.14609
  29        4PX         0.00000   0.10819   0.55605   0.00000  -0.13761
  30        4PY         0.00000  -0.21746  -0.02546   0.00000   0.11147
  31        4PZ         0.27562   0.00000   0.00000  -0.55263   0.00000
  32        5D 0        0.00000   0.01083  -0.00028   0.00000  -0.00575
  33        5D+1       -0.00422   0.00000   0.00000   0.00192   0.00000
  34        5D-1        0.03122   0.00000   0.00000   0.01389   0.00000
  35        5D+2        0.00000   0.01662   0.00355   0.00000   0.00994
  36        5D-2        0.00000   0.01110   0.00130   0.00000   0.01715
  37 3   H  1S          0.00000   0.01526   0.12736   0.00000   0.05845
  38        2S          0.00000   0.01609   0.30548   0.00000   0.10456
  39        3S          0.00000   0.08205   0.39466   0.00000   1.62407
  40        4PX         0.00000  -0.00504   0.00111   0.00000  -0.03211
  41        4PY         0.00000   0.01852   0.02525   0.00000  -0.02136
  42        4PZ         0.02185   0.00000   0.00000   0.01944   0.00000
                          11        12        13        14        15
                           V         V         V         V         V
     Eigenvalues --     0.21657   0.30573   0.39571   0.40783   0.52728
   1 1   C  1S         -0.00832  -0.02622   0.00000   0.04239   0.04608
   2        2S         -0.01296  -0.04497   0.00000   0.07624   0.09170
   3        2PX         0.03232  -0.04967   0.00000  -0.19741  -0.06487
   4        2PY         0.00661   0.00919   0.00000  -0.07798   0.13247
   5        2PZ         0.00000   0.00000  -0.22886   0.00000   0.00000
   6        3S         -0.00787   0.03766   0.00000  -0.39407  -0.84064
   7        3PX         0.04478  -0.12208   0.00000  -0.71514  -0.32093
   8        3PY         0.02169  -0.05027   0.00000  -0.40786   0.44459
   9        3PZ         0.00000   0.00000  -0.84098   0.00000   0.00000
  10        4S          1.96613   3.07839   0.00000   0.72214  -0.78767
  11        4PX         0.39867  -0.85653   0.00000   1.05326   0.21392
  12        4PY        -1.49163  -2.18567   0.00000   0.15840  -0.02885
  13        4PZ         0.00000   0.00000   1.12821   0.00000   0.00000
  14        5D 0       -0.01051   0.00698   0.00000  -0.00987  -0.01620
  15        5D+1        0.00000   0.00000   0.00313   0.00000   0.00000
  16        5D-1        0.00000   0.00000   0.04884   0.00000   0.00000
  17        5D+2        0.01315  -0.01911   0.00000  -0.04039  -0.01640
  18        5D-2        0.00825   0.01532   0.00000   0.03366   0.02799
  19 2   N  1S          0.03499   0.03171   0.00000   0.01482  -0.03897
  20        2S          0.05671   0.05148   0.00000   0.02645  -0.06383
  21        2PX        -0.00842  -0.03070   0.00000  -0.03845  -0.00841
  22        2PY        -0.07002   0.00766   0.00000   0.04864  -0.05452
  23        2PZ         0.00000   0.00000  -0.04272   0.00000   0.00000
  24        3S         -0.13651  -0.10787   0.00000  -0.08583   0.14687
  25        3PX        -0.00203  -0.03052   0.00000  -0.15193  -0.01677
  26        3PY        -0.10156   0.02175   0.00000   0.08335  -0.38076
  27        3PZ         0.00000   0.00000  -0.15276   0.00000   0.00000
  28        4S         -1.70531  -2.75244   0.00000  -0.57124   0.90378
  29        4PX        -0.13680   0.01710   0.00000   0.17079  -0.01715
  30        4PY        -0.77654  -1.05840   0.00000  -0.55348   1.81918
  31        4PZ         0.00000   0.00000   0.10363   0.00000   0.00000
  32        5D 0        0.00232   0.03624   0.00000   0.01857   0.03347
  33        5D+1        0.00000   0.00000   0.00057   0.00000   0.00000
  34        5D-1        0.00000   0.00000  -0.03687   0.00000   0.00000
  35        5D+2        0.02781   0.00302   0.00000   0.02611   0.04381
  36        5D-2       -0.00370   0.00863   0.00000  -0.02961  -0.00393
  37 3   H  1S          0.11556  -0.08848   0.00000  -0.04448  -0.02421
  38        2S          0.86057  -1.35839   0.00000  -0.12215  -0.47148
  39        3S         -1.18750   0.16418   0.00000   0.62662   0.35049
  40        4PX         0.02608  -0.02758   0.00000   0.03551  -0.07468
  41        4PY        -0.01859   0.00177   0.00000  -0.02160   0.00503
  42        4PZ         0.00000   0.00000  -0.01033   0.00000   0.00000
                          16        17        18        19        20
                           V         V         V         V         V
     Eigenvalues --     0.54991   0.63260   0.64027   0.73414   1.00560
   1 1   C  1S          0.07860  -0.01905   0.00000   0.06673   0.00000
   2        2S          0.15160  -0.03763   0.00000   0.13063   0.00000
   3        2PX         0.16080   0.05847   0.00000   0.02833   0.00000
   4        2PY        -0.09678   0.05159   0.00000   0.23766   0.00000
   5        2PZ         0.00000   0.00000   0.10112   0.00000  -0.05170
   6        3S         -1.22889   0.37677   0.00000  -0.80696   0.00000
   7        3PX         0.39777   0.17342   0.00000   0.04669   0.00000
   8        3PY        -0.64416   0.23122   0.00000   0.64612   0.00000
   9        3PZ         0.00000   0.00000   0.21672   0.00000  -0.05959
  10        4S          3.54568  -1.21647   0.00000   0.51524   0.00000
  11        4PX        -1.38344  -0.30574   0.00000  -0.28722   0.00000
  12        4PY        -0.47135   0.14115   0.00000  -0.15004   0.00000
  13        4PZ         0.00000   0.00000  -0.85221   0.00000  -0.07229
  14        5D 0       -0.04262  -0.01034   0.00000  -0.08782   0.00000
  15        5D+1        0.00000   0.00000  -0.01166   0.00000  -0.57264
  16        5D-1        0.00000   0.00000   0.06781   0.00000  -0.08085
  17        5D+2       -0.01606  -0.02006   0.00000  -0.12145   0.00000
  18        5D-2        0.03917   0.04838   0.00000   0.00282   0.00000
  19 2   N  1S          0.00972  -0.00959   0.00000   0.01016   0.00000
  20        2S          0.02046  -0.02016   0.00000   0.02695   0.00000
  21        2PX        -0.06102  -0.22899   0.00000   0.02928   0.00000
  22        2PY        -0.02482   0.01774   0.00000   0.28099   0.00000
  23        2PZ         0.00000   0.00000  -0.24559   0.00000  -0.00657
  24        3S         -0.09525   0.14477   0.00000  -0.35469   0.00000
  25        3PX        -0.15596  -0.80784   0.00000   0.06746   0.00000
  26        3PY        -0.22601   0.07587   0.00000   0.69947   0.00000
  27        3PZ         0.00000   0.00000  -0.81581   0.00000   0.02329
  28        4S         -1.31848   0.23314   0.00000   0.86704   0.00000
  29        4PX         0.25979   1.52091   0.00000  -0.06113   0.00000
  30        4PY        -0.52318   0.10613   0.00000  -0.19222   0.00000
  31        4PZ         0.00000   0.00000   1.48861   0.00000  -0.09522
  32        5D 0        0.04160  -0.01723   0.00000   0.03921   0.00000
  33        5D+1        0.00000   0.00000  -0.00276   0.00000  -0.17037
  34        5D-1        0.00000   0.00000  -0.01498   0.00000   0.03108
  35        5D+2        0.04896   0.00824   0.00000   0.09009   0.00000
  36        5D-2        0.01940  -0.02845   0.00000  -0.00638   0.00000
  37 3   H  1S          0.06879  -0.04852   0.00000   0.00769   0.00000
  38        2S         -0.16434   0.40701   0.00000   0.15227   0.00000
  39        3S         -1.55069   0.52363   0.00000  -0.65081   0.00000
  40        4PX        -0.12577   0.09181   0.00000  -0.06514   0.00000
  41        4PY        -0.03244  -0.04326   0.00000  -0.11036   0.00000
  42        4PZ         0.00000   0.00000   0.03051   0.00000   0.60400
                          21        22        23        24        25
                           V         V         V         V         V
     Eigenvalues --     1.02594   1.22257   1.35926   1.42932   1.59375
   1 1   C  1S         -0.02232   0.00739   0.00000   0.01928   0.01190
   2        2S         -0.02553   0.02028   0.00000   0.03797   0.02198
   3        2PX        -0.00212  -0.02676   0.00000   0.02925   0.06619
   4        2PY        -0.12873  -0.02140   0.00000   0.03430   0.06371
   5        2PZ         0.00000   0.00000   0.05076   0.00000   0.00000
   6        3S         -0.01618  -0.17383   0.00000  -0.31043  -0.12228
   7        3PX        -0.05592  -0.06825   0.00000   0.18010  -0.03726
   8        3PY         0.34779   0.20076   0.00000  -0.06189   0.17312
   9        3PZ         0.00000   0.00000   0.10141   0.00000   0.00000
  10        4S         -4.25294  -1.41681   0.00000   1.63126  -1.25362
  11        4PX        -0.03002   0.33535   0.00000  -0.62329   0.09666
  12        4PY         2.25637   0.65223   0.00000  -0.76631   0.49491
  13        4PZ         0.00000   0.00000  -0.19815   0.00000   0.00000
  14        5D 0        0.21073  -0.21720   0.00000  -0.71046   0.05090
  15        5D+1        0.00000   0.00000  -0.22996   0.00000   0.00000
  16        5D-1        0.00000   0.00000   0.87797   0.00000   0.00000
  17        5D+2        0.34430   0.26102   0.00000   0.36533   0.19986
  18        5D-2        0.08001  -0.59100   0.00000   0.14805   0.66183
  19 2   N  1S          0.10953   0.01963   0.00000  -0.01135  -0.00187
  20        2S          0.21595   0.04351   0.00000  -0.02492   0.00177
  21        2PX         0.00561  -0.10852   0.00000   0.05722  -0.01502
  22        2PY        -0.12529   0.02462   0.00000  -0.00145   0.06662
  23        2PZ         0.00000   0.00000   0.09167   0.00000   0.00000
  24        3S         -1.77433  -0.48716   0.00000   0.25664  -0.19958
  25        3PX        -0.02739  -0.18832   0.00000   0.08332   0.14500
  26        3PY         0.05443   0.12384   0.00000  -0.01727   0.19511
  27        3PZ         0.00000   0.00000   0.23244   0.00000   0.00000
  28        4S          5.69400   1.96014   0.00000  -1.41999   1.54993
  29        4PX         0.17202  -0.27306   0.00000  -0.05194  -0.16820
  30        4PY         2.10014   0.71884   0.00000  -0.39328   0.59652
  31        4PZ         0.00000   0.00000   0.14865   0.00000   0.00000
  32        5D 0       -0.06199   0.01254   0.00000  -0.14978   0.37489
  33        5D+1        0.00000   0.00000  -0.04569   0.00000   0.00000
  34        5D-1        0.00000   0.00000  -0.26974   0.00000   0.00000
  35        5D+2       -0.07738  -0.03254   0.00000   0.14338  -0.20935
  36        5D-2       -0.02729   0.21846   0.00000  -0.07419  -0.06202
  37 3   H  1S          0.08739  -0.04297   0.00000   0.27435   0.23473
  38        2S         -0.35797   0.04567   0.00000  -1.14938  -0.49550
  39        3S          0.43811   0.03643   0.00000   0.14660   0.30953
  40        4PX         0.03868  -0.09772   0.00000   0.39515  -0.13460
  41        4PY        -0.15659   0.50971   0.00000  -0.11579   0.73804
  42        4PZ         0.00000   0.00000  -0.07477   0.00000   0.00000
                          26        27        28        29        30
                           V         V         V         V         V
     Eigenvalues --     1.74425   1.88838   2.00073   2.12505   2.23349
   1 1   C  1S          0.00000   0.02955   0.00000   0.00833  -0.01814
   2        2S          0.00000   0.05015   0.00000   0.03352  -0.03985
   3        2PX         0.00000   0.03861   0.00000  -0.31882  -0.37008
   4        2PY         0.00000   0.38713   0.00000  -0.24403   0.17236
   5        2PZ        -0.08965   0.00000  -0.02171   0.00000   0.00000
   6        3S          0.00000  -0.01434   0.00000  -0.38906   0.26503
   7        3PX         0.00000   0.24383   0.00000   0.60808   0.08065
   8        3PY         0.00000  -0.05705   0.00000   0.35755  -0.26528
   9        3PZ         0.04696   0.00000   0.01946   0.00000   0.00000
  10        4S          0.00000  -0.63293   0.00000  -0.42783   0.92672
  11        4PX         0.00000   0.23140   0.00000  -0.09387  -0.40129
  12        4PY         0.00000   0.53425   0.00000   0.18219  -0.05199
  13        4PZ        -0.24236   0.00000  -0.02409   0.00000   0.00000
  14        5D 0        0.00000   0.83890   0.00000  -0.00233  -0.30425
  15        5D+1        0.82503   0.00000  -0.31023   0.00000   0.00000
  16        5D-1        0.23000   0.00000   0.00260   0.00000   0.00000
  17        5D+2        0.00000   0.61420   0.00000  -0.00870   0.80147
  18        5D-2        0.00000  -0.17219   0.00000   0.26401  -0.14370
  19 2   N  1S          0.00000  -0.04239   0.00000   0.01757  -0.01632
  20        2S          0.00000  -0.09769   0.00000   0.03295  -0.03910
  21        2PX         0.00000   0.01150   0.00000   0.02351  -0.00280
  22        2PY         0.00000   0.09379   0.00000  -0.00344   0.00673
  23        2PZ         0.02095   0.00000   0.00653   0.00000   0.00000
  24        3S          0.00000   0.91875   0.00000  -0.31586   0.44251
  25        3PX         0.00000  -0.03599   0.00000   0.13080  -0.03178
  26        3PY         0.00000   0.64654   0.00000   0.03130   0.22107
  27        3PZ         0.08957   0.00000   0.00039   0.00000   0.00000
  28        4S          0.00000  -0.13890   0.00000   0.99092  -0.73682
  29        4PX         0.00000   0.05026   0.00000  -0.16216   0.05753
  30        4PY         0.00000  -0.51953   0.00000   0.36146  -0.50341
  31        4PZ        -0.03041   0.00000  -0.00268   0.00000   0.00000
  32        5D 0        0.00000  -0.09766   0.00000  -0.35083   0.53713
  33        5D+1        0.07692   0.00000   0.99318   0.00000   0.00000
  34        5D-1       -0.07040   0.00000  -0.01555   0.00000   0.00000
  35        5D+2        0.00000   0.32635   0.00000   0.17597  -0.19599
  36        5D-2        0.00000  -0.00548   0.00000  -0.17330  -0.25161
  37 3   H  1S          0.00000  -0.01779   0.00000  -1.15601  -0.48072
  38        2S          0.00000   0.52425   0.00000   1.51414   0.02204
  39        3S          0.00000   0.19793   0.00000  -0.73442  -0.44142
  40        4PX         0.00000   0.42704   0.00000   0.04849  -0.53724
  41        4PY         0.00000   0.04902   0.00000   0.47012  -0.60102
  42        4PZ         0.92210   0.00000   0.07258   0.00000   0.00000
                          31        32        33        34        35
                           V         V         V         V         V
     Eigenvalues --     2.35698   2.43810   2.67262   2.74062   2.82362
   1 1   C  1S          0.01712   0.00000   0.01269   0.00000   0.05331
   2        2S          0.04130   0.00000   0.02074   0.00000   0.13829
   3        2PX         0.62548   0.00000  -0.17290   0.00000  -0.13632
   4        2PY        -0.10768   0.00000  -0.06445   0.00000   0.47382
   5        2PZ         0.00000   0.83796   0.00000  -1.00186   0.00000
   6        3S         -0.19456   0.00000   0.01640   0.00000  -1.15280
   7        3PX         0.09221   0.00000   0.73178   0.00000   0.45308
   8        3PY         0.14154   0.00000  -0.26382   0.00000   0.59328
   9        3PZ         0.00000  -0.68202   0.00000   1.38456   0.00000
  10        4S         -0.62265   0.00000   0.54465   0.00000  -1.73153
  11        4PX         0.76730   0.00000  -0.00755   0.00000   0.05397
  12        4PY         0.08763   0.00000  -0.29409   0.00000   0.81440
  13        4PZ         0.00000   0.54331   0.00000  -0.30765   0.00000
  14        5D 0        0.14539   0.00000   0.08463   0.00000   0.36282
  15        5D+1        0.00000   0.03105   0.00000  -0.05876   0.00000
  16        5D-1        0.00000  -0.61539   0.00000  -0.56377   0.00000
  17        5D+2       -0.41994   0.00000  -0.59847   0.00000   0.27736
  18        5D-2       -0.71112   0.00000   0.14587   0.00000  -0.06846
  19 2   N  1S          0.00891   0.00000   0.00843   0.00000  -0.00733
  20        2S          0.01521   0.00000   0.01296   0.00000  -0.01391
  21        2PX         0.02421   0.00000   0.24683   0.00000   0.06746
  22        2PY        -0.06459   0.00000  -0.18510   0.00000   0.41239
  23        2PZ         0.00000  -0.03577   0.00000  -0.20722   0.00000
  24        3S         -0.05115   0.00000   0.10700   0.00000  -0.04657
  25        3PX        -0.05329   0.00000  -0.17881   0.00000  -0.07423
  26        3PY        -0.06999   0.00000  -0.13131   0.00000   0.05284
  27        3PZ         0.00000   0.00862   0.00000  -0.00527   0.00000
  28        4S         -0.09171   0.00000  -1.52699   0.00000   2.17270
  29        4PX        -0.18394   0.00000   0.56936   0.00000   0.15249
  30        4PY        -0.08515   0.00000  -0.86415   0.00000   1.15302
  31        4PZ         0.00000  -0.38554   0.00000  -0.25070   0.00000
  32        5D 0        0.31678   0.00000   0.56757   0.00000  -0.45469
  33        5D+1        0.00000   0.00414   0.00000  -0.02156   0.00000
  34        5D-1        0.00000  -0.82155   0.00000  -0.81396   0.00000
  35        5D+2       -0.11772   0.00000   0.10287   0.00000  -1.05428
  36        5D-2       -0.64788   0.00000   0.76179   0.00000   0.10009
  37 3   H  1S         -0.41376   0.00000  -0.56293   0.00000  -0.25300
  38        2S          1.44802   0.00000   1.97148   0.00000   0.79035
  39        3S          0.08079   0.00000  -0.30030   0.00000   0.01288
  40        4PX         0.83543   0.00000   1.07577   0.00000   0.49174
  41        4PY         0.14482   0.00000  -0.13121   0.00000   0.00927
  42        4PZ         0.00000   0.06164   0.00000  -0.14315   0.00000
                          36        37        38        39        40
                           V         V         V         V         V
     Eigenvalues --     2.98219   3.20646   3.72115   3.80181   4.31934
   1 1   C  1S          0.07048   0.03579   0.00000   0.00632   0.05614
   2        2S          0.14976   0.05477   0.00000   0.01605   0.14051
   3        2PX        -0.07195  -1.09744   0.00000   0.22099   0.06155
   4        2PY        -1.18739   0.00138   0.00000   0.02649   0.17663
   5        2PZ         0.00000   0.00000   0.16287   0.00000   0.00000
   6        3S         -0.97845  -0.25529   0.00000  -0.15889  -1.19670
   7        3PX         0.11103   2.24332   0.00000  -0.41972  -0.22734
   8        3PY         2.92374  -0.10267   0.00000   0.06565   1.52328
   9        3PZ         0.00000   0.00000  -0.37947   0.00000   0.00000
  10        4S         -2.04975   0.18768   0.00000   0.38582  -1.26575
  11        4PX         0.09829  -0.23073   0.00000   0.13235   0.04090
  12        4PY         0.28227  -0.19848   0.00000  -0.10921   0.53887
  13        4PZ         0.00000   0.00000   0.24303   0.00000   0.00000
  14        5D 0        0.67620   0.31159   0.00000  -0.02173   0.39585
  15        5D+1        0.00000   0.00000   0.01716   0.00000   0.00000
  16        5D-1        0.00000   0.00000   0.29133   0.00000   0.00000
  17        5D+2        1.00214  -0.83341   0.00000   0.10967   0.85151
  18        5D-2       -0.10006  -0.65949   0.00000   0.32185   0.06231
  19 2   N  1S         -0.04988   0.00693   0.00000  -0.00385  -0.04581
  20        2S         -0.12572   0.01521   0.00000  -0.00865  -0.08166
  21        2PX         0.00000  -0.25875   0.00000  -1.24609   0.08560
  22        2PY         0.08278  -0.12471   0.00000  -0.06937  -1.27839
  23        2PZ         0.00000   0.00000  -1.27829   0.00000   0.00000
  24        3S          1.17381  -0.07616   0.00000   0.12416   0.57815
  25        3PX        -0.05756   0.04318   0.00000   1.57469  -0.09761
  26        3PY         1.34710  -0.10232   0.00000   0.14675   2.59201
  27        3PZ         0.00000   0.00000   1.56297   0.00000   0.00000
  28        4S          1.89458  -0.71563   0.00000  -0.29213   2.08325
  29        4PX         0.15613  -0.17014   0.00000  -0.52607  -0.00280
  30        4PY         0.81821  -0.44565   0.00000  -0.17379   0.28854
  31        4PZ         0.00000   0.00000  -0.62432   0.00000   0.00000
  32        5D 0       -0.20420   0.14972   0.00000   0.02787  -0.48789
  33        5D+1        0.00000   0.00000   0.00761   0.00000   0.00000
  34        5D-1        0.00000   0.00000   0.21225   0.00000   0.00000
  35        5D+2       -0.58288   0.08547   0.00000  -0.08866  -0.74463
  36        5D-2        0.05322  -0.51761   0.00000   0.32383  -0.01754
  37 3   H  1S          0.20871   0.49875   0.00000  -0.31689   0.03317
  38        2S         -0.02328   0.99587   0.00000   0.30629  -0.28993
  39        3S          0.36990  -0.18948   0.00000  -0.22054   0.10673
  40        4PX         0.18469   1.07094   0.00000   0.10665  -0.24350
  41        4PY        -0.20085   0.35691   0.00000  -0.18960   0.05074
  42        4PZ         0.00000   0.00000   0.04631   0.00000   0.00000
                          41        42
                           V         V
     Eigenvalues --    23.92066  35.53470
   1 1   C  1S         -2.03824   0.09752
   2        2S          2.24449  -0.14188
   3        2PX        -0.03920  -0.00189
   4        2PY        -0.05805   0.03302
   5        2PZ         0.00000   0.00000
   6        3S         -0.75543   0.17245
   7        3PX         0.17232   0.01196
   8        3PY         0.54144  -0.30266
   9        3PZ         0.00000   0.00000
  10        4S         -0.26521  -0.07989
  11        4PX        -0.01308  -0.00768
  12        4PY         0.13715   0.09860
  13        4PZ         0.00000   0.00000
  14        5D 0        0.17942  -0.09445
  15        5D+1        0.00000   0.00000
  16        5D-1        0.00000   0.00000
  17        5D+2        0.16103  -0.16790
  18        5D-2       -0.04610   0.00515
  19 2   N  1S         -0.08611  -2.14743
  20        2S          0.05043   2.28582
  21        2PX        -0.00449   0.00010
  22        2PY        -0.07631   0.05344
  23        2PZ         0.00000   0.00000
  24        3S          0.18979  -0.51569
  25        3PX        -0.00004   0.00340
  26        3PY         0.44804  -0.29390
  27        3PZ         0.00000   0.00000
  28        4S          0.57993   0.25540
  29        4PX         0.00239  -0.01501
  30        4PY         0.20712   0.09158
  31        4PZ         0.00000   0.00000
  32        5D 0       -0.10316   0.04682
  33        5D+1        0.00000   0.00000
  34        5D-1        0.00000   0.00000
  35        5D+2       -0.20226   0.09010
  36        5D-2       -0.00945  -0.00367
  37 3   H  1S          0.00436  -0.01976
  38        2S          0.19010   0.02155
  39        3S         -0.07129  -0.03587
  40        4PX         0.16118  -0.00054
  41        4PY         0.03601   0.02990
  42        4PZ         0.00000   0.00000
     Density Matrix:
                           1         2         3         4         5
   1 1   C  1S          0.66216
   2        2S          0.56670   0.50018
   3        2PX        -0.00254  -0.00418   0.05518
   4        2PY        -0.00590  -0.01064   0.00013   0.11856
   5        2PZ         0.00000   0.00000   0.00000   0.00000   0.05828
   6        3S         -0.10233  -0.17558   0.01305   0.03081   0.00000
   7        3PX        -0.00562  -0.00705   0.07878  -0.00271   0.00000
   8        3PY        -0.01591  -0.02183  -0.00086   0.15181   0.00000
   9        3PZ         0.00000   0.00000   0.00000   0.00000   0.08618
  10        4S         -0.10418  -0.16707   0.04292   0.19368   0.00000
  11        4PX        -0.00202  -0.00372   0.03734   0.00562   0.00000
  12        4PY        -0.02045  -0.03155   0.00275   0.06068   0.00000
  13        4PZ         0.00000   0.00000   0.00000   0.00000   0.06243
  14        5D 0       -0.00108   0.00030   0.00208   0.00692   0.00000
  15        5D+1        0.00000   0.00000   0.00000   0.00000  -0.00295
  16        5D-1        0.00000   0.00000   0.00000   0.00000  -0.01510
  17        5D+2       -0.00310  -0.00334  -0.00548   0.01666   0.00000
  18        5D-2        0.00218   0.00295  -0.01228  -0.00579   0.00000
  19 2   N  1S          0.00349   0.00535  -0.00395   0.02175   0.00000
  20        2S          0.00582   0.00784  -0.00639   0.03473   0.00000
  21        2PX        -0.01149  -0.01854   0.05563   0.01576   0.00000
  22        2PY        -0.02387  -0.03712   0.00381  -0.09858   0.00000
  23        2PZ         0.00000   0.00000   0.00000   0.00000   0.07774
  24        3S         -0.01494  -0.01645   0.01956  -0.09734   0.00000
  25        3PX        -0.01722  -0.02774   0.08323   0.02367   0.00000
  26        3PY        -0.03893  -0.05532   0.00489  -0.13396   0.00000
  27        3PZ         0.00000   0.00000   0.00000   0.00000   0.11410
  28        4S          0.01973   0.04059   0.01238  -0.05292   0.00000
  29        4PX        -0.01892  -0.03044   0.05788   0.02991   0.00000
  30        4PY        -0.01528  -0.02080   0.00086  -0.10683   0.00000
  31        4PZ         0.00000   0.00000   0.00000   0.00000   0.09410
  32        5D 0        0.00331   0.00415   0.00112   0.00738   0.00000
  33        5D+1        0.00000   0.00000   0.00000   0.00000  -0.00144
  34        5D-1        0.00000   0.00000   0.00000   0.00000   0.01066
  35        5D+2        0.00602   0.00750  -0.00228   0.01162   0.00000
  36        5D-2       -0.00082  -0.00149   0.00952   0.00256   0.00000
  37 3   H  1S         -0.01697  -0.02639  -0.05236   0.01207   0.00000
  38        2S         -0.02184  -0.03172  -0.08520   0.02383   0.00000
  39        3S          0.00086  -0.00056  -0.02090   0.04498   0.00000
  40        4PX        -0.00578  -0.00699  -0.00772  -0.00293   0.00000
  41        4PY        -0.00380  -0.00575   0.00364   0.00838   0.00000
  42        4PZ         0.00000   0.00000   0.00000   0.00000   0.00746
                           6         7         8         9        10
   6        3S          0.52646
   7        3PX         0.01549   0.11256
   8        3PY         0.04637  -0.00499   0.19503
   9        3PZ         0.00000   0.00000   0.00000   0.12744
  10        4S          0.46629   0.05479   0.25218   0.00000   0.67126
  11        4PX         0.01179   0.05311   0.00706   0.00000   0.03814
  12        4PY         0.08259   0.00209   0.07928   0.00000   0.15198
  13        4PZ         0.00000   0.00000   0.00000   0.09231   0.00000
  14        5D 0       -0.00687   0.00286   0.00861   0.00000   0.00601
  15        5D+1        0.00000   0.00000   0.00000  -0.00436   0.00000
  16        5D-1        0.00000   0.00000   0.00000  -0.02233   0.00000
  17        5D+2        0.00429  -0.00821   0.02131   0.00000   0.02443
  18        5D-2       -0.00672  -0.01737  -0.00724   0.00000  -0.02078
  19 2   N  1S         -0.00842  -0.00626   0.02919   0.00000   0.03509
  20        2S         -0.00984  -0.00981   0.04301   0.00000   0.05420
  21        2PX         0.05325   0.07888   0.01952   0.00000   0.09747
  22        2PY         0.10730   0.00756  -0.12796   0.00000  -0.04656
  23        2PZ         0.00000   0.00000   0.00000   0.11495   0.00000
  24        3S          0.00710   0.02887  -0.10934   0.00000  -0.15302
  25        3PX         0.07963   0.11803   0.02922   0.00000   0.14614
  26        3PY         0.14283   0.00991  -0.17382   0.00000  -0.06564
  27        3PZ         0.00000   0.00000   0.00000   0.16872   0.00000
  28        4S         -0.15811   0.01838  -0.05521   0.00000  -0.22378
  29        4PX         0.08642   0.08163   0.03789   0.00000   0.14541
  30        4PY         0.05525   0.00389  -0.14017   0.00000  -0.09899
  31        4PZ         0.00000   0.00000   0.00000   0.13915   0.00000
  32        5D 0       -0.00833   0.00145   0.00927   0.00000   0.00458
  33        5D+1        0.00000   0.00000   0.00000  -0.00213   0.00000
  34        5D-1        0.00000   0.00000   0.00000   0.01576   0.00000
  35        5D+2       -0.01514  -0.00349   0.01487   0.00000   0.00276
  36        5D-2        0.00486   0.01352   0.00309   0.00000   0.01316
  37 3   H  1S          0.06970  -0.07545   0.01805   0.00000   0.04043
  38        2S          0.07652  -0.12264   0.03378   0.00000   0.04362
  39        3S          0.00423  -0.03106   0.05939   0.00000   0.05221
  40        4PX         0.01261  -0.01101  -0.00329   0.00000   0.00113
  41        4PY         0.01524   0.00496   0.01063   0.00000   0.02658
  42        4PZ         0.00000   0.00000   0.00000   0.01103   0.00000
                          11        12        13        14        15
  11        4PX         0.02624
  12        4PY         0.00578   0.04086
  13        4PZ         0.00000   0.00000   0.06687
  14        5D 0        0.00155   0.00228   0.00000   0.00069
  15        5D+1        0.00000   0.00000  -0.00316   0.00000   0.00015
  16        5D-1        0.00000   0.00000  -0.01618   0.00000   0.00076
  17        5D+2       -0.00318   0.00811   0.00000   0.00081   0.00000
  18        5D-2       -0.00860  -0.00388   0.00000  -0.00076   0.00000
  19 2   N  1S         -0.00598   0.00120   0.00000   0.00360   0.00000
  20        2S         -0.00966   0.00429   0.00000   0.00468   0.00000
  21        2PX         0.03830   0.01518   0.00000   0.00241   0.00000
  22        2PY        -0.00628  -0.03917   0.00000  -0.00693   0.00000
  23        2PZ         0.00000   0.00000   0.08327   0.00000  -0.00393
  24        3S          0.02850  -0.02032   0.00000  -0.00966   0.00000
  25        3PX         0.05718   0.02259   0.00000   0.00364   0.00000
  26        3PY        -0.00873  -0.05357   0.00000  -0.00934   0.00000
  27        3PZ         0.00000   0.00000   0.12222   0.00000  -0.00577
  28        4S          0.02492  -0.02068   0.00000  -0.00423   0.00000
  29        4PX         0.04041   0.02606   0.00000   0.00284   0.00000
  30        4PY        -0.01012  -0.05149   0.00000  -0.00636   0.00000
  31        4PZ         0.00000   0.00000   0.10080   0.00000  -0.00476
  32        5D 0        0.00108   0.00249   0.00000   0.00065   0.00000
  33        5D+1        0.00000   0.00000  -0.00154   0.00000   0.00007
  34        5D-1        0.00000   0.00000   0.01142   0.00000  -0.00054
  35        5D+2       -0.00074   0.00395   0.00000   0.00082   0.00000
  36        5D-2        0.00652   0.00197   0.00000   0.00048   0.00000
  37 3   H  1S         -0.03401   0.01457   0.00000  -0.00278   0.00000
  38        2S         -0.05582   0.02028   0.00000  -0.00348   0.00000
  39        3S         -0.01014   0.02407   0.00000   0.00146   0.00000
  40        4PX        -0.00522   0.00021   0.00000  -0.00074   0.00000
  41        4PY         0.00262   0.00570   0.00000   0.00047   0.00000
  42        4PZ         0.00000   0.00000   0.00799   0.00000  -0.00038
                          16        17        18        19        20
  16        5D-1        0.00391
  17        5D+2        0.00000   0.00300
  18        5D-2        0.00000   0.00040   0.00302
  19 2   N  1S          0.00000   0.00750  -0.00009   0.65337
  20        2S          0.00000   0.01007  -0.00009   0.57056   0.51547
  21        2PX         0.00000  -0.00317  -0.01329  -0.00097  -0.00137
  22        2PY         0.00000  -0.01226   0.00345   0.00832   0.01314
  23        2PZ        -0.02014   0.00000   0.00000   0.00000   0.00000
  24        3S          0.00000  -0.02248  -0.00018  -0.12617  -0.21315
  25        3PX         0.00000  -0.00469  -0.01989  -0.00041  -0.00056
  26        3PY         0.00000  -0.01660   0.00475   0.01404   0.02012
  27        3PZ        -0.02957   0.00000   0.00000   0.00000   0.00000
  28        4S          0.00000  -0.01596   0.00005  -0.13811  -0.21307
  29        4PX         0.00000  -0.00127  -0.01461   0.00227   0.00357
  30        4PY         0.00000  -0.01279   0.00475   0.01274   0.02260
  31        4PZ        -0.02438   0.00000   0.00000   0.00000   0.00000
  32        5D 0        0.00000   0.00089  -0.00056   0.00071   0.00164
  33        5D+1        0.00037   0.00000   0.00000   0.00000   0.00000
  34        5D-1       -0.00276   0.00000   0.00000   0.00000   0.00000
  35        5D+2        0.00000   0.00169   0.00002  -0.00064  -0.00001
  36        5D-2        0.00000  -0.00057  -0.00225   0.00005   0.00005
  37 3   H  1S          0.00000   0.00690   0.01068   0.00088   0.00149
  38        2S          0.00000   0.01193   0.01736   0.00537   0.00939
  39        3S          0.00000   0.00772   0.00243  -0.00119  -0.00244
  40        4PX         0.00000   0.00037   0.00178  -0.00102  -0.00145
  41        4PY         0.00000   0.00094  -0.00127   0.00222   0.00396
  42        4PZ        -0.00193   0.00000   0.00000   0.00000   0.00000
                          21        22        23        24        25
  21        2PX         0.06070
  22        2PY         0.00123   0.14659
  23        2PZ         0.00000   0.00000   0.10369
  24        3S          0.00393  -0.04010   0.00000   0.63961
  25        3PX         0.09086   0.00260   0.00000   0.00225   0.13603
  26        3PY         0.00119   0.19841   0.00000  -0.05421   0.00281
  27        3PZ         0.00000   0.00000   0.15219   0.00000   0.00000
  28        4S         -0.00962  -0.12062   0.00000   0.58268  -0.01794
  29        4PX         0.06690  -0.00191   0.00000  -0.00969   0.10017
  30        4PY        -0.00594   0.14925   0.00000  -0.07363  -0.00789
  31        4PZ         0.00000   0.00000   0.12552   0.00000   0.00000
  32        5D 0        0.00136  -0.00883   0.00000  -0.00596   0.00203
  33        5D+1        0.00000   0.00000  -0.00192   0.00000   0.00000
  34        5D-1        0.00000   0.00000   0.01422   0.00000   0.00000
  35        5D+2       -0.00208  -0.01640   0.00000  -0.00274  -0.00316
  36        5D-2        0.01008  -0.00066   0.00000   0.00015   0.01509
  37 3   H  1S         -0.04581   0.00242   0.00000  -0.00705  -0.06865
  38        2S         -0.07650  -0.00560   0.00000  -0.03251  -0.11452
  39        3S         -0.01579  -0.05206   0.00000   0.00866  -0.02393
  40        4PX        -0.00712   0.00520   0.00000   0.00305  -0.01067
  41        4PY         0.00570  -0.00178   0.00000  -0.01258   0.00858
  42        4PZ         0.00000   0.00000   0.00995   0.00000   0.00000
                          26        27        28        29        30
  26        3PY         0.26864
  27        3PZ         0.00000   0.22339
  28        4S         -0.16276   0.00000   0.60407
  29        4PX        -0.00324   0.00000  -0.02804   0.07655
  30        4PY         0.20229   0.00000  -0.13949  -0.01266   0.15979
  31        4PZ         0.00000   0.18423   0.00000   0.00000   0.00000
  32        5D 0       -0.01197   0.00000   0.00026   0.00169  -0.00842
  33        5D+1        0.00000  -0.00282   0.00000   0.00000   0.00000
  34        5D-1        0.00000   0.02087   0.00000   0.00000   0.00000
  35        5D+2       -0.02220   0.00000   0.00785  -0.00185  -0.01597
  36        5D-2       -0.00096   0.00000  -0.00078   0.01089  -0.00145
  37 3   H  1S          0.00317   0.00000  -0.02276  -0.04219  -0.00430
  38        2S         -0.00759   0.00000  -0.04333  -0.07211  -0.01216
  39        3S         -0.07061   0.00000   0.02833  -0.01184  -0.05738
  40        4PX         0.00706   0.00000  -0.00224  -0.00694   0.00421
  41        4PY        -0.00250   0.00000  -0.01394   0.00760  -0.00321
  42        4PZ         0.00000   0.01460   0.00000   0.00000   0.00000
                          31        32        33        34        35
  31        4PZ         0.15194
  32        5D 0        0.00000   0.00070
  33        5D+1       -0.00233   0.00000   0.00004
  34        5D-1        0.01721   0.00000  -0.00026   0.00195
  35        5D+2        0.00000   0.00105   0.00000   0.00000   0.00199
  36        5D-2        0.00000   0.00031   0.00000   0.00000  -0.00023
  37 3   H  1S          0.00000  -0.00191   0.00000   0.00000   0.00092
  38        2S          0.00000  -0.00208   0.00000   0.00000   0.00295
  39        3S          0.00000   0.00247   0.00000   0.00000   0.00621
  40        4PX         0.00000  -0.00065   0.00000   0.00000  -0.00046
  41        4PY         0.00000   0.00034   0.00000   0.00000   0.00013
  42        4PZ         0.01204   0.00000  -0.00018   0.00136   0.00000
                          36        37        38        39        40
  36        5D-2        0.00171
  37 3   H  1S         -0.00851   0.06359
  38        2S         -0.01387   0.09759   0.15264
  39        3S         -0.00277   0.02573   0.04213   0.03017
  40        4PX        -0.00134   0.00944   0.01408   0.00198   0.00163
  41        4PY         0.00087  -0.00096  -0.00195   0.00100  -0.00039
  42        4PZ         0.00000   0.00000   0.00000   0.00000   0.00000
                          41        42
  41        4PY         0.00123
  42        4PZ         0.00000   0.00095
    Full Mulliken population analysis:
                           1         2         3         4         5
   1 1   C  1S          0.66216
   2        2S          0.49781   0.50018
   3        2PX         0.00000   0.00000   0.05518
   4        2PY         0.00000   0.00000   0.00000   0.11856
   5        2PZ         0.00000   0.00000   0.00000   0.00000   0.05828
   6        3S         -0.03369  -0.07353   0.00000   0.00000   0.00000
   7        3PX         0.00000   0.00000   0.04956   0.00000   0.00000
   8        3PY         0.00000   0.00000   0.00000   0.09551   0.00000
   9        3PZ         0.00000   0.00000   0.00000   0.00000   0.05422
  10        4S         -0.01602  -0.03127   0.00000   0.00000   0.00000
  11        4PX         0.00000   0.00000   0.00822   0.00000   0.00000
  12        4PY         0.00000   0.00000   0.00000   0.01336   0.00000
  13        4PZ         0.00000   0.00000   0.00000   0.00000   0.01375
  14        5D 0        0.00000   0.00000   0.00000   0.00000   0.00000
  15        5D+1        0.00000   0.00000   0.00000   0.00000   0.00000
  16        5D-1        0.00000   0.00000   0.00000   0.00000   0.00000
  17        5D+2        0.00000   0.00000   0.00000   0.00000   0.00000
  18        5D-2        0.00000   0.00000   0.00000   0.00000   0.00000
  19 2   N  1S          0.00000   0.00000   0.00000  -0.00016   0.00000
  20        2S          0.00000   0.00000   0.00000  -0.00019   0.00000
  21        2PX         0.00000   0.00000   0.00050   0.00000   0.00000
  22        2PY        -0.00010  -0.00007   0.00000   0.00688   0.00000
  23        2PZ         0.00000   0.00000   0.00000   0.00000   0.00070
  24        3S         -0.00035  -0.00042   0.00000   0.01285   0.00000
  25        3PX         0.00000   0.00000   0.00595   0.00000   0.00000
  26        3PY        -0.00274  -0.00460   0.00000   0.03569   0.00000
  27        3PZ         0.00000   0.00000   0.00000   0.00000   0.00816
  28        4S          0.00147   0.00363   0.00000   0.00663   0.00000
  29        4PX         0.00000   0.00000   0.00725   0.00000   0.00000
  30        4PY        -0.00214  -0.00358   0.00000   0.01034   0.00000
  31        4PZ         0.00000   0.00000   0.00000   0.00000   0.01178
  32        5D 0       -0.00013  -0.00020   0.00000   0.00104   0.00000
  33        5D+1        0.00000   0.00000   0.00000   0.00000   0.00000
  34        5D-1        0.00000   0.00000   0.00000   0.00000   0.00139
  35        5D+2       -0.00041  -0.00062   0.00000   0.00283   0.00000
  36        5D-2        0.00000   0.00000   0.00124   0.00000   0.00000
  37 3   H  1S         -0.00012  -0.00015   0.00364  -0.00022   0.00000
  38        2S         -0.00132  -0.00228   0.01295  -0.00095   0.00000
  39        3S          0.00006  -0.00005   0.00136  -0.00077   0.00000
  40        4PX        -0.00035  -0.00049   0.00185   0.00024   0.00000
  41        4PY        -0.00006  -0.00011  -0.00029   0.00037   0.00000
  42        4PZ         0.00000   0.00000   0.00000   0.00000   0.00049
                           6         7         8         9        10
   6        3S          0.52646
   7        3PX         0.00000   0.11256
   8        3PY         0.00000   0.00000   0.19503
   9        3PZ         0.00000   0.00000   0.00000   0.12744
  10        4S          0.36123   0.00000   0.00000   0.00000   0.67126
  11        4PX         0.00000   0.03471   0.00000   0.00000   0.00000
  12        4PY         0.00000   0.00000   0.05181   0.00000   0.00000
  13        4PZ         0.00000   0.00000   0.00000   0.06032   0.00000
  14        5D 0        0.00000   0.00000   0.00000   0.00000   0.00000
  15        5D+1        0.00000   0.00000   0.00000   0.00000   0.00000
  16        5D-1        0.00000   0.00000   0.00000   0.00000   0.00000
  17        5D+2        0.00000   0.00000   0.00000   0.00000   0.00000
  18        5D-2        0.00000   0.00000   0.00000   0.00000   0.00000
  19 2   N  1S         -0.00027   0.00000  -0.00259   0.00000   0.00220
  20        2S         -0.00034   0.00000  -0.00429   0.00000   0.00380
  21        2PX         0.00000   0.00519   0.00000   0.00000   0.00000
  22        2PY         0.01096   0.00000   0.02495   0.00000  -0.00298
  23        2PZ         0.00000   0.00000   0.00000   0.00756   0.00000
  24        3S          0.00169   0.00000   0.04737   0.00000  -0.05580
  25        3PX         0.00000   0.02768   0.00000   0.00000   0.00000
  26        3PY         0.05202   0.00000   0.07442   0.00000  -0.01552
  27        3PZ         0.00000   0.00000   0.00000   0.03958   0.00000
  28        4S         -0.06772   0.00000   0.02155   0.00000  -0.14408
  29        4PX         0.00000   0.03184   0.00000   0.00000   0.00000
  30        4PY         0.03346   0.00000   0.02272   0.00000  -0.05361
  31        4PZ         0.00000   0.00000   0.00000   0.05428   0.00000
  32        5D 0        0.00101   0.00000   0.00083   0.00000  -0.00014
  33        5D+1        0.00000   0.00000   0.00000   0.00000   0.00000
  34        5D-1        0.00000   0.00000   0.00000   0.00425   0.00000
  35        5D+2        0.00317   0.00000   0.00231   0.00000  -0.00015
  36        5D-2        0.00000   0.00365   0.00000   0.00000   0.00000
  37 3   H  1S          0.01024   0.02382  -0.00150   0.00000   0.00984
  38        2S          0.02843   0.05482  -0.00397   0.00000   0.02357
  39        3S          0.00185   0.00710  -0.00357   0.00000   0.03791
  40        4PX         0.00416   0.00417   0.00052   0.00000   0.00024
  41        4PY         0.00132  -0.00078   0.00191   0.00000   0.00147
  42        4PZ         0.00000   0.00000   0.00000   0.00243   0.00000
                          11        12        13        14        15
  11        4PX         0.02624
  12        4PY         0.00000   0.04086
  13        4PZ         0.00000   0.00000   0.06687
  14        5D 0        0.00000   0.00000   0.00000   0.00069
  15        5D+1        0.00000   0.00000   0.00000   0.00000   0.00015
  16        5D-1        0.00000   0.00000   0.00000   0.00000   0.00000
  17        5D+2        0.00000   0.00000   0.00000   0.00000   0.00000
  18        5D-2        0.00000   0.00000   0.00000   0.00000   0.00000
  19 2   N  1S          0.00000  -0.00012   0.00000  -0.00021   0.00000
  20        2S          0.00000  -0.00050   0.00000  -0.00031   0.00000
  21        2PX         0.00288   0.00000   0.00000   0.00000   0.00000
  22        2PY         0.00000   0.00107   0.00000   0.00080   0.00000
  23        2PZ         0.00000   0.00000   0.00626   0.00000   0.00000
  24        3S          0.00000   0.01041   0.00000   0.00186   0.00000
  25        3PX         0.01586   0.00000   0.00000   0.00000   0.00000
  26        3PY         0.00000   0.00293   0.00000   0.00123   0.00000
  27        3PZ         0.00000   0.00000   0.03391   0.00000   0.00000
  28        4S          0.00000   0.01315   0.00000   0.00033   0.00000
  29        4PX         0.02568   0.00000   0.00000   0.00000   0.00000
  30        4PY         0.00000  -0.00517   0.00000  -0.00024   0.00000
  31        4PZ         0.00000   0.00000   0.06406   0.00000   0.00000
  32        5D 0        0.00000  -0.00007   0.00000   0.00009   0.00000
  33        5D+1        0.00000   0.00000   0.00000   0.00000   0.00001
  34        5D-1        0.00000   0.00000   0.00141   0.00000   0.00000
  35        5D+2        0.00000  -0.00018   0.00000  -0.00002   0.00000
  36        5D-2        0.00081   0.00000   0.00000   0.00000   0.00000
  37 3   H  1S          0.01214  -0.00137   0.00000   0.00050   0.00000
  38        2S          0.03419  -0.00327   0.00000   0.00047   0.00000
  39        3S          0.00500  -0.00312   0.00000  -0.00004   0.00000
  40        4PX         0.00017  -0.00002   0.00000   0.00010   0.00000
  41        4PY        -0.00020   0.00135   0.00000  -0.00002   0.00000
  42        4PZ         0.00000   0.00000   0.00205   0.00000   0.00013
                          16        17        18        19        20
  16        5D-1        0.00391
  17        5D+2        0.00000   0.00300
  18        5D-2        0.00000   0.00000   0.00302
  19 2   N  1S          0.00000  -0.00075   0.00000   0.65337
  20        2S          0.00000  -0.00117   0.00000   0.50909   0.51547
  21        2PX         0.00000   0.00000   0.00186   0.00000   0.00000
  22        2PY         0.00000   0.00247   0.00000   0.00000   0.00000
  23        2PZ         0.00281   0.00000   0.00000   0.00000   0.00000
  24        3S          0.00000   0.00749   0.00000  -0.04343  -0.08758
  25        3PX         0.00000   0.00000   0.00717   0.00000   0.00000
  26        3PY         0.00000   0.00377   0.00000   0.00000   0.00000
  27        3PZ         0.01066   0.00000   0.00000   0.00000   0.00000
  28        4S          0.00000   0.00219   0.00000  -0.02188  -0.03833
  29        4PX         0.00000   0.00000   0.00400   0.00000   0.00000
  30        4PY         0.00000  -0.00085   0.00000   0.00000   0.00000
  31        4PZ         0.00668   0.00000   0.00000   0.00000   0.00000
  32        5D 0        0.00000  -0.00002   0.00000   0.00000   0.00000
  33        5D+1        0.00000   0.00000   0.00000   0.00000   0.00000
  34        5D-1        0.00110   0.00000   0.00000   0.00000   0.00000
  35        5D+2        0.00000   0.00018   0.00000   0.00000   0.00000
  36        5D-2        0.00000   0.00000   0.00090   0.00000   0.00000
  37 3   H  1S          0.00000   0.00186   0.00162   0.00000   0.00000
  38        2S          0.00000   0.00241   0.00199   0.00012   0.00024
  39        3S          0.00000   0.00031   0.00006  -0.00006  -0.00013
  40        4PX         0.00000   0.00006   0.00034  -0.00001  -0.00001
  41        4PY         0.00000   0.00021   0.00034  -0.00002  -0.00003
  42        4PZ         0.00017   0.00000   0.00000   0.00000   0.00000
                          21        22        23        24        25
  21        2PX         0.06070
  22        2PY         0.00000   0.14659
  23        2PZ         0.00000   0.00000   0.10369
  24        3S          0.00000   0.00000   0.00000   0.63961
  25        3PX         0.05634   0.00000   0.00000   0.00000   0.13603
  26        3PY         0.00000   0.12301   0.00000   0.00000   0.00000
  27        3PZ         0.00000   0.00000   0.09436   0.00000   0.00000
  28        4S          0.00000   0.00000   0.00000   0.44683   0.00000
  29        4PX         0.01403   0.00000   0.00000   0.00000   0.06436
  30        4PY         0.00000   0.03131   0.00000   0.00000   0.00000
  31        4PZ         0.00000   0.00000   0.02633   0.00000   0.00000
  32        5D 0        0.00000   0.00000   0.00000   0.00000   0.00000
  33        5D+1        0.00000   0.00000   0.00000   0.00000   0.00000
  34        5D-1        0.00000   0.00000   0.00000   0.00000   0.00000
  35        5D+2        0.00000   0.00000   0.00000   0.00000   0.00000
  36        5D-2        0.00000   0.00000   0.00000   0.00000   0.00000
  37 3   H  1S          0.00027   0.00001   0.00000  -0.00024   0.00540
  38        2S          0.00388  -0.00022   0.00000  -0.00574   0.02319
  39        3S          0.00053  -0.00135   0.00000   0.00247   0.00317
[...]
 Electronic spatial extent (au):  <R**2>=             47.4875
 Charge=              0.0000 electrons
 Dipole moment (field-independent basis, Debye):
    X=             -1.2638    Y=              0.1999    Z=              0.0000  Tot=              1.2795
 Quadrupole moment (field-independent basis, Debye-Ang):
   XX=             -9.6753   YY=            -14.2141   ZZ=            -12.0358
   XY=             -0.3902   XZ=              0.0000   YZ=              0.0000
 Traceless Quadrupole moment (field-independent basis, Debye-Ang):
   XX=              2.2998   YY=             -2.2390   ZZ=             -0.0608
   XY=             -0.3902   XZ=              0.0000   YZ=              0.0000
 Octapole moment (field-independent basis, Debye-Ang**2):
  XXX=             -2.4082  YYY=             -2.8833  ZZZ=              0.0000  XYY=             -0.2319
  XXY=             -0.5335  XXZ=              0.0000  XZZ=             -0.2390  YZZ=             -0.6786
  YYZ=              0.0000  XYZ=              0.0000
 Hexadecapole moment (field-independent basis, Debye-Ang**3):
 XXXX=            -12.8458 YYYY=            -42.6074 ZZZZ=            -11.8620 XXXY=             -0.1424
 XXXZ=              0.0000 YYYX=              0.5289 YYYZ=              0.0000 ZZZX=              0.0000
 ZZZY=              0.0000 XXYY=             -8.9865 XXZZ=             -4.5635 YYZZ=             -8.5826
 XXYZ=              0.0000 YYXZ=              0.0000 ZZXY=              0.1764
 N-N= 2.408039611502D+01 E-N=-2.659975214389D+02  KE= 9.307412910200D+01
 Symmetry A'   KE= 9.011307610462D+01
 Symmetry A"   KE= 2.961052997379D+00
 Orbital energies and kinetic energies (alpha):
                                 1                 2
   1         O               -14.384432         22.051482
   2         O               -10.233115         15.952692
   3         O                -0.991223          2.156757
   4         O                -0.534348          1.481546
   5         O                -0.452761          1.847149
   6         O                -0.392346          1.480526
   7         O                -0.346516          1.566913
   8         V                -0.073743          1.682125
   9         V                 0.000863          1.606098
  10         V                 0.038289          0.862154
  11         V                 0.216572          0.847904
  12         V                 0.305726          0.919009
  13         V                 0.395708          1.353842
  14         V                 0.407835          1.512824
  15         V                 0.527284          1.552544
  16         V                 0.549915          1.912317
  17         V                 0.632598          1.939744
  18         V                 0.640266          1.988135
  19         V                 0.734143          3.247449
  20         V                 1.005597          1.868514
  21         V                 1.025943          3.245567
  22         V                 1.222572          2.341561
  23         V                 1.359256          2.503207
  24         V                 1.429323          2.441216
  25         V                 1.593746          2.650111
  26         V                 1.744246          2.600570
  27         V                 1.888382          3.681807
  28         V                 2.000734          3.278599
  29         V                 2.125046          3.891922
  30         V                 2.233489          3.763254
  31         V                 2.356981          4.378779
  32         V                 2.438098          4.828135
  33         V                 2.672620          4.262876
  34         V                 2.740620          5.410570
  35         V                 2.823625          5.429707
  36         V                 2.982187          6.365743
  37         V                 3.206460          6.099319
  38         V                 3.721153          8.784711
  39         V                 3.801810          8.695116
  40         V                 4.319338          9.402515
  41         V                23.920661         60.473141
  42         V                35.534704         89.003586
 Total kinetic energy from orbitals= 9.307412910200D+01
  Exact polarizability:  13.998   0.102  18.751   0.000   0.000  10.228
 Approx polarizability:  20.609   1.087  36.748   0.000   0.000  13.814
 No NMR shielding tensors so no spin-rotation constants.
 Leave Link  601 at Thu Apr 14 13:06:40 2016, MaxMem=   104857600 cpu:         0.1
 (Enter /home/projets/algogen/g09.D01/g09/l701.exe)
 Compute integral second derivatives.
 ... and contract with generalized density number  0.
 Leave Link  701 at Thu Apr 14 13:06:40 2016, MaxMem=   104857600 cpu:         0.1
 (Enter /home/projets/algogen/g09.D01/g09/l702.exe)
 L702 exits ... SP integral derivatives will be done elsewhere.
 Leave Link  702 at Thu Apr 14 13:06:40 2016, MaxMem=   104857600 cpu:         0.0
 (Enter /home/projets/algogen/g09.D01/g09/l703.exe)
 Compute integral second derivatives, UseDBF=F ICtDFT=           0.
 Integral derivatives from FoFJK, PRISM(SPDF).
 Calling FoFJK, ICntrl=    100127 FMM=F ISym2X=1 I1Cent= 0 IOpClX= 0 NMat=1 NMatS=1 NMatT=0.
 FoFJK:  IHMeth= 1 ICntrl=  100127 DoSepK=F KAlg= 0 I1Cent=   0 FoldK=F
 IRaf=         0 NMat=   1 IRICut=       1 DoRegI=T DoRafI=F ISym2E= 1.
 FoFCou: FMM=F IPFlag=           0 FMFlag=      100000 FMFlg1=         800
         NFxFlg=           0 DoJE=F BraDBF=F KetDBF=F FulRan=T
         wScrn=  0.000000 ICntrl=  100127 IOpCl=  0 I1Cent=           0 NGrid=           0
         NMat0=    1 NMatS0=      1 NMatT0=    0 NMatD0=    1 NMtDS0=    0 NMtDT0=    0
 Petite list used in FoFCou.
 Leave Link  703 at Thu Apr 14 13:06:42 2016, MaxMem=   104857600 cpu:         1.2
 (Enter /home/projets/algogen/g09.D01/g09/l716.exe)
 Dipole        =-4.97215851D-01 7.86512184D-02-9.96355661D-32
 Polarizability= 1.39976782D+01 1.01635044D-01 1.87511012D+01
                -3.33912687D-10 3.52484881D-10 1.02278883D+01
 Full mass-weighted force constant matrix:
 Low frequencies ----1134.6414 -170.7175  -41.9466   -0.0002    0.0009    0.0010
 Low frequencies ---  159.6641 2074.7171 2661.8881
 ******    1 imaginary frequencies (negative Signs) ****** 
 Diagonal vibrational polarizability:
        0.5750550       2.4113322       0.0000000
 Harmonic frequencies (cm**-1), IR intensities (KM/Mole), Raman scattering
 activities (A**4/AMU), depolarization ratios for plane and unpolarized
 incident light, reduced masses (AMU), force constants (mDyne/A),
 and normal coordinates:
                      1                      2                      3
                     A'                     A'                     A'
 Frequencies --  -1134.6414              2074.7119              2661.8711
 Red. masses --      1.1718                12.1498                 1.0606
 Frc consts  --      0.8888                30.8131                 4.4277
 IR Inten    --    115.2847                 7.2751               139.8269
  Atom  AN      X      Y      Z        X      Y      Z        X      Y      Z
     1   6     0.07   0.06   0.00    -0.02   0.73   0.00     0.07   0.01   0.00
     2   7    -0.07   0.02   0.00     0.02  -0.64   0.00     0.01   0.00   0.00
     3   1     0.11  -0.99   0.00     0.03   0.25   0.00    -1.00  -0.06   0.00

 -------------------
 - Thermochemistry -
 -------------------
 Temperature   298.150 Kelvin.  Pressure   1.00000 Atm.
 Atom     1 has atomic number  6 and mass  12.00000
 Atom     2 has atomic number  7 and mass  14.00307
 Atom     3 has atomic number  1 and mass   1.00783
 Molecular mass:    27.01090 amu.
 Principal axes and moments of inertia in atomic units:
                           1         2         3
     Eigenvalues --     4.41840  32.68458  37.10297
           X           -0.04707   0.99889   0.00000
           Y            0.99889   0.04707   0.00000
           Z            0.00000   0.00000   1.00000
 This molecule is an asymmetric top.
 Rotational symmetry number  1.
 Rotational temperatures (Kelvin)     19.60299     2.64999     2.33442
 Rotational constants (GHZ):         408.46055    55.21691    48.64142
    1 imaginary frequencies ignored.
 Zero-point vibrational energy      28331.1 (Joules/Mol)
                                    6.77129 (Kcal/Mol)
 Vibrational temperatures:   2985.04  3829.83
          (Kelvin)
 
 Zero-point correction=                           0.010791 (Hartree/Particle)
 Thermal correction to Energy=                    0.013624
 Thermal correction to Enthalpy=                  0.014568
 Thermal correction to Gibbs Free Energy=        -0.010211
 Sum of electronic and zero-point Energies=            -93.364874
 Sum of electronic and thermal Energies=               -93.362041
 Sum of electronic and thermal Enthalpies=             -93.361097
 Sum of electronic and thermal Free Energies=          -93.385876
 
                     E (Thermal)             CV                S
                      KCal/Mol        Cal/Mol-Kelvin    Cal/Mol-Kelvin
 Total                    8.549              5.971             52.152
 Electronic               0.000              0.000              0.000
 Translational            0.889              2.981             35.816
 Rotational               0.889              2.981             16.334
 Vibrational              6.772              0.010              0.001
                       Q            Log10(Q)             Ln(Q)
 Total Bot       0.497460D+05          4.696758         10.814686
 Total V=0       0.457235D+10          9.660139         22.243292
 Vib (Bot)       0.108803D-04         -4.963360        -11.428559
 Vib (V=0)       0.100005D+01          0.000021          0.000048
 Electronic      0.100000D+01          0.000000          0.000000
 Translational   0.551777D+07          6.741764         15.523485
 Rotational      0.828618D+03          2.918355          6.719760
 
                                                           point 2 reverse
                                                             IR Spectrum
 
      2                           2                                                                                                  
      6                           0                                                                                                  
      6                           7                                                                                                  
      2                           5                                                                                                  
 
      X                           X                                                                                                  
      X                                                                                                                              
      X                                                                                                                              
      X                                                                                                                              
      X                                                                                                                              
      X                                                                                                                              
      X                                                                                                                              
      X                                                                                                                              
      X                                                                                                                              
      X                                                                                                                              
      X                                                                                                                              
      X                                                                                                                              
      X                                                                                                                              
      X                                                                                                                              
      X                                                                                                                              
      X                                                                                                                              
      X                                                                                                                              
      X                                                                                                                              
      X                                                                                                                              
      X                                                                                                                              
 
 ***** Axes restored to original set *****
 -------------------------------------------------------------------
 Center     Atomic                   Forces (Hartrees/Bohr)
 Number     Number              X              Y              Z
 -------------------------------------------------------------------
      1        6           0.005071875    0.000000000    0.003923910
      2        7          -0.005776832    0.000000000    0.001876707
      3        1           0.000704957    0.000000000   -0.005800618
 -------------------------------------------------------------------
 Cartesian Forces:  Max     0.005800618 RMS     0.003530171
 Z-matrix is all fixed cartesians, so copy forces.
 Force constants in Cartesian coordinates: 
                1             2             3             4             5 
      1  0.137943D+00
      2  0.000000D+00  0.349033D-02
      3 -0.485818D-01  0.000000D+00  0.100190D+01
      4  0.732135D-01  0.000000D+00  0.684403D-01 -0.307060D-01
      5  0.000000D+00 -0.113461D-02  0.000000D+00  0.000000D+00 -0.154251D-02
      6  0.275590D-01  0.000000D+00 -0.105701D+01 -0.255808D-01  0.000000D+00
      7 -0.211157D+00  0.000000D+00 -0.198585D-01 -0.425074D-01  0.000000D+00
      8  0.000000D+00 -0.235572D-02  0.000000D+00  0.000000D+00  0.267712D-02
      9  0.210227D-01  0.000000D+00  0.551094D-01 -0.428595D-01  0.000000D+00
                6             7             8             9 
      6  0.107295D+01
      7 -0.197823D-02  0.253664D+00
      8  0.000000D+00  0.000000D+00 -0.321399D-03
      9 -0.159485D-01  0.218368D-01  0.000000D+00 -0.391609D-01
 Leave Link  716 at Thu Apr 14 13:06:42 2016, MaxMem=   104857600 cpu:         0.0
 (Enter /home/projets/algogen/g09.D01/g09/l103.exe)

 GradGradGradGradGradGradGradGradGradGradGradGradGradGradGradGradGradGrad
 Berny optimization.
 Search for a local minimum.
 Step number   1 out of a maximum of    2
 All quantities printed in internal units (Hartrees-Bohrs-Radians)
 Second derivative matrix not updated -- analytic derivatives used.
 The second derivative matrix:
                          X1        Y1        Z1        X2        Y2
           X1           0.13794
           Y1           0.00000   0.00349
           Z1          -0.04858   0.00000   1.00190
           X2           0.07321   0.00000   0.06844  -0.03071
           Y2           0.00000  -0.00113   0.00000   0.00000  -0.00154
           Z2           0.02756   0.00000  -1.05701  -0.02558   0.00000
           X3          -0.21116   0.00000  -0.01986  -0.04251   0.00000
           Y3           0.00000  -0.00236   0.00000   0.00000   0.00268
           Z3           0.02102   0.00000   0.05511  -0.04286   0.00000
                          Z2        X3        Y3        Z3
           Z2           1.07295
           X3          -0.00198   0.25366
           Y3           0.00000   0.00000  -0.00032
           Z3          -0.01595   0.02184   0.00000  -0.03916
 ITU=  0
     Eigenvalues ---   -0.10712   0.37643   2.09468
 Eigenvalue     1 is  -1.07D-01 should be greater than     0.000000 Eigenvector:
                          Z3        X2        X1        Z1        X3
   1                    0.85033   0.32770  -0.27944  -0.19719  -0.18252
                          Z2        Y2        Y1        Y3
   1                   -0.13883   0.00000   0.00000   0.00000
 Angle between quadratic step and forces=  26.66 degrees.
 ClnCor:  largest displacement from symmetrization is 3.47D-18 for atom     1.
 Linear search not attempted -- first point.
 ClnCor:  largest displacement from symmetrization is 4.44D-16 for atom     3.
 TrRot= -0.005975  0.000000  0.008123  0.000000 -0.010888  0.000000
 Variable       Old X    -DE/DX   Delta X   Delta X   Delta X     New X
                                 (Linear)    (Quad)   (Total)
    X1       -0.07117   0.00507   0.00000   0.02576   0.03243  -0.03874
    Y1        0.00000   0.00000   0.00000   0.00000   0.00000   0.00000
    Z1       -1.17940   0.00392   0.00000   0.01779   0.02548  -1.15392
    X2       -0.08824  -0.00578   0.00000  -0.02856  -0.04613  -0.13437
    Y2        0.00000   0.00000   0.00000   0.00000   0.00000   0.00000
    Z2        1.05372   0.00188   0.00000   0.01190   0.01868   1.07240
    X3        2.07353   0.00070   0.00000   0.01247   0.01370   2.08723
    Y3        0.00000   0.00000   0.00000   0.00000   0.00000   0.00000
    Z3       -0.59780  -0.00580   0.00000  -0.07504  -0.04417  -0.64196
         Item               Value     Threshold  Converged?
 Maximum Force            0.005801     0.000450     NO 
 RMS     Force            0.003530     0.000300     NO 
 Maximum Displacement     0.046130     0.001800     NO 
 RMS     Displacement     0.026493     0.001200     NO 
 Predicted change in Energy=-1.242409D-03
 GradGradGradGradGradGradGradGradGradGradGradGradGradGradGradGradGradGrad

 Leave Link  103 at Thu Apr 14 13:06:42 2016, MaxMem=   104857600 cpu:         0.0
 (Enter /home/projets/algogen/g09.D01/g09/l9999.exe)

 Test job not archived.
 1\1\GINC-ROMEO106\Freq\RB3LYP\6-311G(d,p)\C1H1N1\ROOT\14-Apr-2016\0\\#
 P B3LYP 6-311G** FREQ # POP=full GFINPUT IOP(6/7=3)\\point 2 reverse\\
 0,1\C,-0.037663,0.,-0.624113\N,-0.046696,0.,0.557604\H,1.097264,0.,-0.
 31634\\Version=ES64L-G09RevD.01\State=1-A'\HF=-93.375665\RMSD=3.591e-0
 9\RMSF=3.530e-03\ZeroPoint=0.0107907\Thermal=0.0136237\Dipole=0.497802
 5,0.,-0.0748483\DipoleDeriv=-0.2408022,0.,-0.0249553,0.,-0.1375935,0.,
 0.2069327,0.,-0.1957202,-0.1260782,0.,0.1295983,0.,-0.0937584,0.,-0.20
 83796,0.,-0.1418021,0.3668803,0.,-0.104643,0.,0.2313519,0.,0.0014469,0
 .,0.3375223\Polar=13.9964022,0.,10.2278883,0.0652903,0.,18.7523772\PG=
 CS [SG(C1H1N1)]\NImag=1\\0.13794348,0.,0.00349033,-0.04858175,0.,1.001
 89642,0.07321347,0.,0.06844028,-0.03070604,0.,-0.00113461,0.,0.,-0.001
 54251,0.02755904,0.,-1.05700578,-0.02558082,0.,1.07295424,-0.21115695,
 0.,-0.01985853,-0.04250743,0.,-0.00197823,0.25366438,0.,-0.00235572,0.
 ,0.,0.00267712,0.,0.,-0.00032140,0.02102271,0.,0.05510936,-0.04285946,
 0.,-0.01594845,0.02183675,0.,-0.03916091\\-0.00507188,0.,-0.00392391,0
 .00577683,0.,-0.00187671,-0.00070496,0.,0.00580062\\\@


 ANYONE WHO IS NOT SHOCKED BY QUANTUM THEORY HAS
 NOT UNDERSTOOD IT. -- NIELS BOHR(1885-1962)
 Job cpu time:       0 days  0 hours  0 minutes  5.0 seconds.
 File lengths (MBytes):  RWF=      5 Int=      0 D2E=      0 Chk=      1 Scr=      1
 Normal termination of Gaussian 09 at Thu Apr 14 13:06:42 2016.
************
total 116
drwxrwxr-x 2 henon henon   4096 14 avril 13:06 .
drwxrwxr-x 3 henon henon   4096 14 avril 13:06 ..
-rw-r--r-- 1 henon henon    267 14 avril 13:06 rev2.inp
-rw-rw-r-- 1 henon henon 104648 14 avril 13:06 rev2.out
Run on 1 cores
romeo106
************
