total 12
drwxrwxr-x 2 henon henon 4096 14 avril 12:47 .
drwxrwxr-x 3 henon henon 4096 14 avril 12:47 ..
-rw-r--r-- 1 henon henon  266 14 avril 12:47 forward.inp
-rw-rw-r-- 1 henon henon    0 14 avril 12:47 forward.out
 Entering Gaussian System, Link 0=g09
 Initial command:
 /home/projets/algogen/g09.D01/g09/l1.exe "/scratch_l/henon/forward_16500/Gau-16510.inp" -scrdir="/scratch_l/henon/forward_16500/"
 Entering Link 1 = /home/projets/algogen/g09.D01/g09/l1.exe PID=     16511.
  
 Copyright (c) 1988,1990,1992,1993,1995,1998,2003,2009,2013,
            Gaussian, Inc.  All Rights Reserved.
  
 This is part of the Gaussian(R) 09 program.  It is based on
 the Gaussian(R) 03 system (copyright 2003, Gaussian, Inc.),
 the Gaussian(R) 98 system (copyright 1998, Gaussian, Inc.),
 the Gaussian(R) 94 system (copyright 1995, Gaussian, Inc.),
 the Gaussian 92(TM) system (copyright 1992, Gaussian, Inc.),
 the Gaussian 90(TM) system (copyright 1990, Gaussian, Inc.),
 the Gaussian 88(TM) system (copyright 1988, Gaussian, Inc.),
 the Gaussian 86(TM) system (copyright 1986, Carnegie Mellon
 University), and the Gaussian 82(TM) system (copyright 1983,
 Carnegie Mellon University). Gaussian is a federally registered
 trademark of Gaussian, Inc.
  
 This software contains proprietary and confidential information,
 including trade secrets, belonging to Gaussian, Inc.
  
 This software is provided under written license and may be
 used, copied, transmitted, or stored only in accord with that
 written license.
  
 The following legend is applicable only to US Government
 contracts under FAR:
  
                    RESTRICTED RIGHTS LEGEND
  
 Use, reproduction and disclosure by the US Government is
 subject to restrictions as set forth in subparagraphs (a)
 and (c) of the Commercial Computer Software - Restricted
 Rights clause in FAR 52.227-19.
  
 Gaussian, Inc.
 340 Quinnipiac St., Bldg. 40, Wallingford CT 06492
  
  
 ---------------------------------------------------------------
 Warning -- This program may not be used in any manner that
 competes with the business of Gaussian, Inc. or will provide
 assistance to any competitor of Gaussian, Inc.  The licensee
 of this program is prohibited from giving any competitor of
 Gaussian, Inc. access to this program.  By using this program,
 the user acknowledges that Gaussian, Inc. is engaged in the
 business of creating and licensing software in the field of
 computational chemistry and represents and warrants to the
 licensee that it is not a competitor of Gaussian, Inc. and that
 it will not use this program in any manner prohibited above.
 ---------------------------------------------------------------
  

 Cite this work as:
 Gaussian 09, Revision D.01,
 M. J. Frisch, G. W. Trucks, H. B. Schlegel, G. E. Scuseria, 
 M. A. Robb, J. R. Cheeseman, G. Scalmani, V. Barone, B. Mennucci, 
 G. A. Petersson, H. Nakatsuji, M. Caricato, X. Li, H. P. Hratchian, 
 A. F. Izmaylov, J. Bloino, G. Zheng, J. L. Sonnenberg, M. Hada, 
 M. Ehara, K. Toyota, R. Fukuda, J. Hasegawa, M. Ishida, T. Nakajima, 
 Y. Honda, O. Kitao, H. Nakai, T. Vreven, J. A. Montgomery, Jr., 
 J. E. Peralta, F. Ogliaro, M. Bearpark, J. J. Heyd, E. Brothers, 
 K. N. Kudin, V. N. Staroverov, T. Keith, R. Kobayashi, J. Normand, 
 K. Raghavachari, A. Rendell, J. C. Burant, S. S. Iyengar, J. Tomasi, 
 M. Cossi, N. Rega, J. M. Millam, M. Klene, J. E. Knox, J. B. Cross, 
 V. Bakken, C. Adamo, J. Jaramillo, R. Gomperts, R. E. Stratmann, 
 O. Yazyev, A. J. Austin, R. Cammi, C. Pomelli, J. W. Ochterski, 
 R. L. Martin, K. Morokuma, V. G. Zakrzewski, G. A. Voth, 
 P. Salvador, J. J. Dannenberg, S. Dapprich, A. D. Daniels, 
 O. Farkas, J. B. Foresman, J. V. Ortiz, J. Cioslowski, 
 and D. J. Fox, Gaussian, Inc., Wallingford CT, 2013.
 
 ******************************************
 Gaussian 09:  ES64L-G09RevD.01 24-Apr-2013
                14-Apr-2016 
 ******************************************
 %NPROC=1
 Will use up to    1 processors via shared memory.
 %MEM=800MB
 ----------------------------------------------------------------------
 #P B3LYP 6-311G** IRC=(forward, maxpoints=10, stepsize=2, calcfc) # PO
 P=full GFINPUT IOP(6/7=3)
 ----------------------------------------------------------------------
 1/10=4,14=-1,18=10,22=1,26=3,38=1,39=2,42=10,44=3/1,23;
 2/12=2,17=6,18=5,29=1,40=1/2;
 3/5=4,6=6,7=101,11=2,16=1,24=10,25=1,30=1,71=2,74=-5,140=1/1,2,3;
 4//1;
 5/5=2,38=5/2;
 8/6=4,10=90,11=11/1;
 11/6=1,8=1,9=11,15=111,16=1/1,2,10;
 10/6=1,13=1/2;
 6/7=3,28=1/1;
 7/10=1,18=20,25=1/1,2,3,16;
 1/10=4,14=-1,18=10,22=1,26=3,39=2,42=10,44=3/23(2);
 2/29=1/2;
 99/5=20/99;
 2/29=1/2;
 3/5=4,6=6,7=101,11=2,16=1,25=1,30=1,71=2,74=-5,140=1/1,2,3;
 4/5=5,16=3,69=1/1;
 5/5=2,38=5/2;
 8/6=4,10=90,11=11/1;
 11/6=1,8=1,9=11,15=111,16=1/1,2,10;
 10/6=1,13=1/2;
 7/10=1,18=20,25=1/1,2,3,16;
 1/14=-1,18=10,22=1,26=3,39=2,42=10,44=3/23(-8);
 2/29=1/2;
 6/7=3,19=2,28=1/1;
 99/5=20,9=1/99;
 Leave Link    1 at Thu Apr 14 12:47:36 2016, MaxMem=   104857600 cpu:         0.0
 (Enter /home/projets/algogen/g09.D01/g09/l101.exe)
 -----------------
 irc reverse
 -----------------
 Symbolic Z-matrix:
 Charge =  0 Multiplicity = 1
 c
 n                    1    nc2
 h                    1    hc3      2    hcn3
       Variables:
       Constants:
  nc2                   1.1838                   
  hc3                   1.191                    
  hcn3                 71.7135                   
 
 NAtoms=      3 NQM=        3 NQMF=       0 NMMI=      0 NMMIF=      0
                NMic=       0 NMicF=      0.
                    Isotopes and Nuclear Properties:
 (Nuclear quadrupole moments (NQMom) in fm**2, nuclear magnetic moments (NMagM)
  in nuclear magnetons)

  Atom         1           2           3
 IAtWgt=          12          14           1
 AtmWgt=  12.0000000  14.0030740   1.0078250
 NucSpn=           0           2           1
 AtZEff=   0.0000000   0.0000000   0.0000000
 NQMom=    0.0000000   2.0440000   0.0000000
 NMagM=    0.0000000   0.4037610   2.7928460
 AtZNuc=   6.0000000   7.0000000   1.0000000
 Leave Link  101 at Thu Apr 14 12:47:36 2016, MaxMem=   104857600 cpu:         0.1
 (Enter /home/projets/algogen/g09.D01/g09/l123.exe)
 IRC-IRC-IRC-IRC-IRC-IRC-IRC-IRC-IRC-IRC-IRC-IRC-IRC-IRC-IRC-IRC-IRC-IRC
 ------------------------------------------------------------------------
 INPUT DATA FOR L123
 ------------------------------------------------------------------------
 GENERAL PARAMETERS:
 Rxn path following direction = Forward
 Maximum points per path      =  10
 Step size                    =   0.020 bohr
 Integration scheme           = HPC                                 
    Redo corrector integration= Yes                                 
    DWI Weight Power          =  2
    DWI will use Hessian update vectors when possible.
    Max correction cycles     =  20
 Initial Hessian              = CalcFC
 Hessian evaluation           = All updating
 Hessian updating method      = Bofill                              
 ------------------------------------------------------------------------
 IRC-IRC-IRC-IRC-IRC-IRC-IRC-IRC-IRC-IRC-IRC-IRC-IRC-IRC-IRC-IRC-IRC-IRC
 Leave Link  123 at Thu Apr 14 12:47:36 2016, MaxMem=   104857600 cpu:         0.0
 (Enter /home/projets/algogen/g09.D01/g09/l202.exe)
                          Input orientation:                          
 ---------------------------------------------------------------------
 Center     Atomic      Atomic             Coordinates (Angstroms)
 Number     Number       Type             X           Y           Z
 ---------------------------------------------------------------------
      1          6           0        0.000000    0.000000    0.000000
      2          7           0        0.000000    0.000000    1.183800
      3          1           0        1.130854    0.000000    0.373699
 ---------------------------------------------------------------------
                    Distance matrix (angstroms):
                    1          2          3
     1  C    0.000000
     2  N    1.183800   0.000000
     3  H    1.191000   1.391077   0.000000
 Symmetry turned off by external request.
 Stoichiometry    CHN
 Framework group  CS[SG(CHN)]
 Deg. of freedom     3
 Full point group                 CS      NOp   2
 Rotational constants (GHZ):    410.8319360     55.3286212     48.7616642
 Leave Link  202 at Thu Apr 14 12:47:36 2016, MaxMem=   104857600 cpu:         0.0
 (Enter /home/projets/algogen/g09.D01/g09/l301.exe)
 Standard basis: 6-311G(d,p) (5D, 7F)
 Ernie: Thresh=  0.10000D-02 Tol=  0.10000D-05 Strict=F.
 AO basis set in the form of general basis input (Overlap normalization):
      1 0
 S   6 1.00       0.000000000000
      0.4563240000D+04  0.1966650249D-02
      0.6820240000D+03  0.1523060193D-01
      0.1549730000D+03  0.7612690966D-01
      0.4445530000D+02  0.2608010331D+00
      0.1302900000D+02  0.6164620782D+00
      0.1827730000D+01  0.2210060280D+00
 SP   3 1.00       0.000000000000
      0.2096420000D+02  0.1146600807D+00  0.4024869267D-01
      0.4803310000D+01  0.9199996477D+00  0.2375939567D+00
      0.1459330000D+01 -0.3030682134D-02  0.8158538515D+00
 SP   1 1.00       0.000000000000
      0.4834560000D+00  0.1000000000D+01  0.1000000000D+01
 SP   1 1.00       0.000000000000
      0.1455850000D+00  0.1000000000D+01  0.1000000000D+01
 D   1 1.00       0.000000000000
      0.6260000000D+00  0.1000000000D+01
 ****
      2 0
 S   6 1.00       0.000000000000
      0.6293480000D+04  0.1969788147D-02
      0.9490440000D+03  0.1496128592D-01
      0.2187760000D+03  0.7350053084D-01
      0.6369160000D+02  0.2489367658D+00
      0.1882820000D+02  0.6024594331D+00
      0.2720230000D+01  0.2562017589D+00
 SP   3 1.00       0.000000000000
      0.3063310000D+02  0.1119060795D+00  0.3831191864D-01
      0.7026140000D+01  0.9216666549D+00  0.2374031155D+00
      0.2112050000D+01 -0.2569191826D-02  0.8175923978D+00
 SP   1 1.00       0.000000000000
      0.6840090000D+00  0.1000000000D+01  0.1000000000D+01
 SP   1 1.00       0.000000000000
      0.2008780000D+00  0.1000000000D+01  0.1000000000D+01
 D   1 1.00       0.000000000000
      0.9130000000D+00  0.1000000000D+01
 ****
      3 0
 S   3 1.00       0.000000000000
      0.3386500000D+02  0.2549381454D-01
      0.5094790000D+01  0.1903731086D+00
      0.1158790000D+01  0.8521614860D+00
 S   1 1.00       0.000000000000
      0.3258400000D+00  0.1000000000D+01
 S   1 1.00       0.000000000000
      0.1027410000D+00  0.1000000000D+01
 P   1 1.00       0.000000000000
      0.7500000000D+00  0.1000000000D+01
 ****

    42 basis functions,    72 primitive gaussians,    44 cartesian basis functions
     7 alpha electrons        7 beta electrons
       nuclear repulsion energy        24.1033986767 Hartrees.
 IExCor=  402 DFT=T Ex+Corr=B3LYP ExCW=0 ScaHFX=  0.200000
 ScaDFX=  0.800000  0.720000  1.000000  0.810000 ScalE2=  1.000000  1.000000
 IRadAn=      0 IRanWt=     -1 IRanGd=            0 ICorTp=0 IEmpDi=  4
 NAtoms=    3 NActive=    3 NUniq=    3 SFac= 1.00D+00 NAtFMM=   60 NAOKFM=F Big=F
 Integral buffers will be    131072 words long.
 Raffenetti 2 integral format.
 Two-electron integral symmetry is turned off.
 Leave Link  301 at Thu Apr 14 12:47:36 2016, MaxMem=   104857600 cpu:         0.0
 (Enter /home/projets/algogen/g09.D01/g09/l302.exe)
 NPDir=0 NMtPBC=     1 NCelOv=     1 NCel=       1 NClECP=     1 NCelD=      1
         NCelK=      1 NCelE2=     1 NClLst=     1 CellRange=     0.0.
 One-electron integrals computed using PRISM.
 NBasis=    42 RedAO= T EigKep=  6.12D-03  NBF=    42
 NBsUse=    42 1.00D-06 EigRej= -1.00D+00 NBFU=    42
 Precomputing XC quadrature grid using
 IXCGrd= 4 IRadAn=           0 IRanWt=          -1 IRanGd=           0 AccXCQ= 0.00D+00.
 Generated NRdTot=       0 NPtTot=           0 NUsed=           0 NTot=          32
 NSgBfM=    44    44    44    44    44 MxSgAt=     3 MxSgA2=     3.
 Leave Link  302 at Thu Apr 14 12:47:36 2016, MaxMem=   104857600 cpu:         0.1
 (Enter /home/projets/algogen/g09.D01/g09/l303.exe)
 DipDrv:  MaxL=1.
 Leave Link  303 at Thu Apr 14 12:47:36 2016, MaxMem=   104857600 cpu:         0.0
 (Enter /home/projets/algogen/g09.D01/g09/l401.exe)
 ExpMin= 1.03D-01 ExpMax= 6.29D+03 ExpMxC= 9.49D+02 IAcc=1 IRadAn=         1 AccDes= 0.00D+00
 Harris functional with IExCor=  402 and IRadAn=       1 diagonalized for initial guess.
 HarFok:  IExCor=  402 AccDes= 0.00D+00 IRadAn=         1 IDoV= 1 UseB2=F ITyADJ=14
 ICtDFT=  3500011 ScaDFX=  1.000000  1.000000  1.000000  1.000000
 FoFCou: FMM=F IPFlag=           0 FMFlag=      100000 FMFlg1=           0
         NFxFlg=           0 DoJE=T BraDBF=F KetDBF=T FulRan=T
         wScrn=  0.000000 ICntrl=     500 IOpCl=  0 I1Cent=   200000004 NGrid=           0
         NMat0=    1 NMatS0=      1 NMatT0=    0 NMatD0=    1 NMtDS0=    0 NMtDT0=    0
 Symmetry not used in FoFCou.
 Harris En= -93.3714256799441    
 JPrj=0 DoOrth=F DoCkMO=F.
 Leave Link  401 at Thu Apr 14 12:47:37 2016, MaxMem=   104857600 cpu:         0.1
 (Enter /home/projets/algogen/g09.D01/g09/l502.exe)
 Closed shell SCF:
 Using DIIS extrapolation, IDIIS=  1040.
 Two-electron integral symmetry not used.
 Keep R1 ints in memory in canonical form, NReq=1297700.
 IVT=       24892 IEndB=       24892 NGot=   104857600 MDV=   104424553
 LenX=   104424553 LenY=   104422176
 Requested convergence on RMS density matrix=1.00D-08 within 128 cycles.
 Requested convergence on MAX density matrix=1.00D-06.
 Requested convergence on             energy=1.00D-06.
 No special actions if energy rises.
 FoFCou: FMM=F IPFlag=           0 FMFlag=           0 FMFlg1=           0
         NFxFlg=           0 DoJE=F BraDBF=F KetDBF=F FulRan=T
         wScrn=  0.000000 ICntrl=     600 IOpCl=  0 I1Cent=           0 NGrid=           0
         NMat0=    1 NMatS0=    903 NMatT0=    0 NMatD0=    1 NMtDS0=    0 NMtDT0=    0
 Symmetry not used in FoFCou.
 Integral accuracy reduced to 1.0D-05 until final iterations.

 Cycle   1  Pass 0  IDiag  1:
 E= -93.3486059823746    
 DIIS: error= 2.74D-02 at cycle   1 NSaved=   1.
 NSaved= 1 IEnMin= 1 EnMin= -93.3486059823746     IErMin= 1 ErrMin= 2.74D-02
 ErrMax= 2.74D-02  0.00D+00 EMaxC= 1.00D-01 BMatC= 3.13D-02 BMatP= 3.13D-02
 IDIUse=3 WtCom= 7.26D-01 WtEn= 2.74D-01
 Coeff-Com:  0.100D+01
 Coeff-En:   0.100D+01
 Coeff:      0.100D+01
 Gap=     0.272 Goal=   None    Shift=    0.000
 GapD=    0.272 DampG=1.000 DampE=0.500 DampFc=0.5000 IDamp=-1.
 Damping current iteration by 5.00D-01
 RMSDP=5.82D-03 MaxDP=8.31D-02              OVMax= 1.08D-01

 Cycle   2  Pass 0  IDiag  1:
 E= -93.3623898147168     Delta-E=       -0.013783832342 Rises=F Damp=T
 DIIS: error= 4.58D-03 at cycle   2 NSaved=   2.
 NSaved= 2 IEnMin= 2 EnMin= -93.3623898147168     IErMin= 2 ErrMin= 4.58D-03
 ErrMax= 4.58D-03  0.00D+00 EMaxC= 1.00D-01 BMatC= 1.61D-03 BMatP= 3.13D-02
 IDIUse=3 WtCom= 9.54D-01 WtEn= 4.58D-02
 Coeff-Com: -0.137D+00 0.114D+01
 Coeff-En:   0.000D+00 0.100D+01
 Coeff:     -0.131D+00 0.113D+01
 Gap=     0.282 Goal=   None    Shift=    0.000
 RMSDP=7.66D-04 MaxDP=6.72D-03 DE=-1.38D-02 OVMax= 5.54D-02

 Cycle   3  Pass 0  IDiag  1:
 E= -93.3749193655542     Delta-E=       -0.012529550837 Rises=F Damp=F
 DIIS: error= 3.95D-03 at cycle   3 NSaved=   3.
 NSaved= 3 IEnMin= 3 EnMin= -93.3749193655542     IErMin= 3 ErrMin= 3.95D-03
 ErrMax= 3.95D-03  0.00D+00 EMaxC= 1.00D-01 BMatC= 3.79D-04 BMatP= 1.61D-03
 IDIUse=3 WtCom= 9.60D-01 WtEn= 3.95D-02
 Coeff-Com: -0.884D-01 0.345D+00 0.743D+00
 Coeff-En:   0.000D+00 0.000D+00 0.100D+01
 Coeff:     -0.849D-01 0.331D+00 0.753D+00
 Gap=     0.282 Goal=   None    Shift=    0.000
 RMSDP=4.71D-04 MaxDP=4.92D-03 DE=-1.25D-02 OVMax= 1.28D-02

 Cycle   4  Pass 0  IDiag  1:
 E= -93.3747990717815     Delta-E=        0.000120293773 Rises=F Damp=F
 DIIS: error= 5.81D-03 at cycle   4 NSaved=   4.
 NSaved= 4 IEnMin= 3 EnMin= -93.3749193655542     IErMin= 3 ErrMin= 3.95D-03
 ErrMax= 5.81D-03  0.00D+00 EMaxC= 1.00D-01 BMatC= 5.27D-04 BMatP= 3.79D-04
 IDIUse=3 WtCom= 1.16D-01 WtEn= 8.84D-01
 Coeff-Com: -0.486D-01 0.119D+00 0.567D+00 0.362D+00
 Coeff-En:   0.000D+00 0.000D+00 0.564D+00 0.436D+00
 Coeff:     -0.564D-02 0.138D-01 0.564D+00 0.428D+00
 Gap=     0.278 Goal=   None    Shift=    0.000
 RMSDP=3.81D-04 MaxDP=5.12D-03 DE= 1.20D-04 OVMax= 9.51D-03

 Cycle   5  Pass 0  IDiag  1:
 E= -93.3752154765176     Delta-E=       -0.000416404736 Rises=F Damp=F
 DIIS: error= 9.16D-04 at cycle   5 NSaved=   5.
 NSaved= 5 IEnMin= 5 EnMin= -93.3752154765176     IErMin= 5 ErrMin= 9.16D-04
 ErrMax= 9.16D-04  0.00D+00 EMaxC= 1.00D-01 BMatC= 4.31D-05 BMatP= 3.79D-04
 IDIUse=3 WtCom= 9.91D-01 WtEn= 9.16D-03
 Coeff-Com: -0.231D-03-0.256D-02 0.238D+00 0.237D+00 0.527D+00
 Coeff-En:   0.000D+00 0.000D+00 0.000D+00 0.437D-01 0.956D+00
 Coeff:     -0.229D-03-0.253D-02 0.236D+00 0.235D+00 0.531D+00
 Gap=     0.279 Goal=   None    Shift=    0.000
 RMSDP=1.35D-04 MaxDP=1.83D-03 DE=-4.16D-04 OVMax= 2.30D-03

 Cycle   6  Pass 0  IDiag  1:
 E= -93.3752610855627     Delta-E=       -0.000045609045 Rises=F Damp=F
 DIIS: error= 3.89D-05 at cycle   6 NSaved=   6.
 NSaved= 6 IEnMin= 6 EnMin= -93.3752610855627     IErMin= 6 ErrMin= 3.89D-05
 ErrMax= 3.89D-05  0.00D+00 EMaxC= 1.00D-01 BMatC= 5.62D-08 BMatP= 4.31D-05
 IDIUse=1 WtCom= 1.00D+00 WtEn= 0.00D+00
 Coeff-Com:  0.242D-02-0.538D-02 0.192D-02 0.101D-01 0.727D-01 0.918D+00
 Coeff:      0.242D-02-0.538D-02 0.192D-02 0.101D-01 0.727D-01 0.918D+00
 Gap=     0.279 Goal=   None    Shift=    0.000
 RMSDP=5.89D-06 MaxDP=1.03D-04 DE=-4.56D-05 OVMax= 1.01D-04

 Initial convergence to 1.0D-05 achieved.  Increase integral accuracy.
 Cycle   7  Pass 1  IDiag  1:
 E= -93.3752569544335     Delta-E=        0.000004131129 Rises=F Damp=F
 DIIS: error= 5.16D-06 at cycle   1 NSaved=   1.
 NSaved= 1 IEnMin= 1 EnMin= -93.3752569544335     IErMin= 1 ErrMin= 5.16D-06
 ErrMax= 5.16D-06  0.00D+00 EMaxC= 1.00D-01 BMatC= 1.41D-09 BMatP= 1.41D-09
 IDIUse=1 WtCom= 1.00D+00 WtEn= 0.00D+00
 Coeff-Com:  0.100D+01
 Coeff:      0.100D+01
 Gap=     0.279 Goal=   None    Shift=    0.000
 RMSDP=5.89D-06 MaxDP=1.03D-04 DE= 4.13D-06 OVMax= 2.55D-05

 Cycle   8  Pass 1  IDiag  1:
 E= -93.3752569556271     Delta-E=       -0.000000001194 Rises=F Damp=F
 DIIS: error= 2.03D-06 at cycle   2 NSaved=   2.
 NSaved= 2 IEnMin= 2 EnMin= -93.3752569556271     IErMin= 2 ErrMin= 2.03D-06
 ErrMax= 2.03D-06  0.00D+00 EMaxC= 1.00D-01 BMatC= 2.01D-10 BMatP= 1.41D-09
 IDIUse=1 WtCom= 1.00D+00 WtEn= 0.00D+00
 Coeff-Com:  0.236D+00 0.764D+00
 Coeff:      0.236D+00 0.764D+00
 Gap=     0.279 Goal=   None    Shift=    0.000
 RMSDP=3.40D-07 MaxDP=4.90D-06 DE=-1.19D-09 OVMax= 7.60D-06

 Cycle   9  Pass 1  IDiag  1:
 E= -93.3752569557327     Delta-E=       -0.000000000106 Rises=F Damp=F
 DIIS: error= 2.31D-06 at cycle   3 NSaved=   3.
 NSaved= 3 IEnMin= 3 EnMin= -93.3752569557327     IErMin= 2 ErrMin= 2.03D-06
 ErrMax= 2.31D-06  0.00D+00 EMaxC= 1.00D-01 BMatC= 7.72D-11 BMatP= 2.01D-10
 IDIUse=1 WtCom= 1.00D+00 WtEn= 0.00D+00
 Coeff-Com:  0.863D-01 0.404D+00 0.509D+00
 Coeff:      0.863D-01 0.404D+00 0.509D+00
 Gap=     0.279 Goal=   None    Shift=    0.000
 RMSDP=1.61D-07 MaxDP=1.83D-06 DE=-1.06D-10 OVMax= 5.37D-06

 Cycle  10  Pass 1  IDiag  1:
 E= -93.3752569557724     Delta-E=       -0.000000000040 Rises=F Damp=F
 DIIS: error= 1.30D-06 at cycle   4 NSaved=   4.
 NSaved= 4 IEnMin= 4 EnMin= -93.3752569557724     IErMin= 4 ErrMin= 1.30D-06
 ErrMax= 1.30D-06  0.00D+00 EMaxC= 1.00D-01 BMatC= 3.27D-11 BMatP= 7.72D-11
 IDIUse=1 WtCom= 1.00D+00 WtEn= 0.00D+00
 Coeff-Com:  0.138D-02 0.773D-01 0.394D+00 0.527D+00
 Coeff:      0.138D-02 0.773D-01 0.394D+00 0.527D+00
 Gap=     0.279 Goal=   None    Shift=    0.000
 RMSDP=9.39D-08 MaxDP=9.41D-07 DE=-3.97D-11 OVMax= 2.36D-06

 Cycle  11  Pass 1  IDiag  1:
 E= -93.3752569558011     Delta-E=       -0.000000000029 Rises=F Damp=F
 DIIS: error= 1.57D-07 at cycle   5 NSaved=   5.
 NSaved= 5 IEnMin= 5 EnMin= -93.3752569558011     IErMin= 5 ErrMin= 1.57D-07
 ErrMax= 1.57D-07  0.00D+00 EMaxC= 1.00D-01 BMatC= 9.62D-13 BMatP= 3.27D-11
 IDIUse=1 WtCom= 1.00D+00 WtEn= 0.00D+00
 Coeff-Com: -0.860D-02-0.706D-02 0.135D+00 0.249D+00 0.632D+00
 Coeff:     -0.860D-02-0.706D-02 0.135D+00 0.249D+00 0.632D+00
 Gap=     0.279 Goal=   None    Shift=    0.000
 RMSDP=1.93D-08 MaxDP=3.06D-07 DE=-2.87D-11 OVMax= 3.79D-07

 Cycle  12  Pass 1  IDiag  1:
 E= -93.3752569558023     Delta-E=       -0.000000000001 Rises=F Damp=F
 DIIS: error= 1.53D-08 at cycle   6 NSaved=   6.
 NSaved= 6 IEnMin= 6 EnMin= -93.3752569558023     IErMin= 6 ErrMin= 1.53D-08
 ErrMax= 1.53D-08  0.00D+00 EMaxC= 1.00D-01 BMatC= 7.33D-15 BMatP= 9.62D-13
 IDIUse=1 WtCom= 1.00D+00 WtEn= 0.00D+00
 Coeff-Com: -0.598D-03-0.700D-02-0.148D-01-0.135D-01 0.135D-01 0.102D+01
 Coeff:     -0.598D-03-0.700D-02-0.148D-01-0.135D-01 0.135D-01 0.102D+01
 Gap=     0.279 Goal=   None    Shift=    0.000
 RMSDP=3.52D-09 MaxDP=4.18D-08 DE=-1.17D-12 OVMax= 8.24D-08

 SCF Done:  E(RB3LYP) =  -93.3752569558     A.U. after   12 cycles
            NFock= 12  Conv=0.35D-08     -V/T= 2.0033
 KE= 9.307211708646D+01 PE=-2.660178749806D+02 EE= 5.546710226159D+01
 Leave Link  502 at Thu Apr 14 12:47:38 2016, MaxMem=   104857600 cpu:         1.1
 (Enter /home/projets/algogen/g09.D01/g09/l801.exe)
 DoSCS=F DFT=T ScalE2(SS,OS)=  1.000000  1.000000
 Range of M.O.s used for correlation:     1    42
 NBasis=    42 NAE=     7 NBE=     7 NFC=     0 NFV=     0
 NROrb=     42 NOA=     7 NOB=     7 NVA=    35 NVB=    35
 Leave Link  801 at Thu Apr 14 12:47:38 2016, MaxMem=   104857600 cpu:         0.0
 (Enter /home/projets/algogen/g09.D01/g09/l1101.exe)
 Using compressed storage, NAtomX=     3.
 Will process      4 centers per pass.
 Leave Link 1101 at Thu Apr 14 12:47:38 2016, MaxMem=   104857600 cpu:         0.1
 (Enter /home/projets/algogen/g09.D01/g09/l1102.exe)
 Symmetrizing basis deriv contribution to polar:
 IMax=3 JMax=2 DiffMx= 0.00D+00
 Leave Link 1102 at Thu Apr 14 12:47:38 2016, MaxMem=   104857600 cpu:         0.0
 (Enter /home/projets/algogen/g09.D01/g09/l1110.exe)
 Forming Gx(P) for the SCF density, NAtomX=     3.
 Integral derivatives from FoFJK, PRISM(SPDF).
 Do as many integral derivatives as possible in FoFJK.
 G2DrvN: MDV=     104857472.
 G2DrvN: will do     4 centers at a time, making    1 passes.
 Calling FoFCou, ICntrl=  3107 FMM=F I1Cent=   0 AccDes= 0.00D+00.
 FoFJK:  IHMeth= 1 ICntrl=    3107 DoSepK=F KAlg= 0 I1Cent=   0 FoldK=F
 IRaf=         0 NMat=   1 IRICut=       1 DoRegI=T DoRafI=F ISym2E= 0.
 FoFCou: FMM=F IPFlag=           0 FMFlag=      100000 FMFlg1=           0
         NFxFlg=           0 DoJE=F BraDBF=F KetDBF=F FulRan=T
         wScrn=  0.000000 ICntrl=    3107 IOpCl=  0 I1Cent=           0 NGrid=           0
         NMat0=    1 NMatS0=      1 NMatT0=    0 NMatD0=    1 NMtDS0=    0 NMtDT0=    0
 Symmetry not used in FoFCou.
 End of G2Drv F.D. properties file   721 does not exist.
 End of G2Drv F.D. properties file   722 does not exist.
 End of G2Drv F.D. properties file   788 does not exist.
 Leave Link 1110 at Thu Apr 14 12:47:39 2016, MaxMem=   104857600 cpu:         1.5
 (Enter /home/projets/algogen/g09.D01/g09/l1002.exe)
 Minotr:  Closed shell wavefunction.
          IDoAtm=111
          Direct CPHF calculation.
          Differentiating once with respect to nuclear coordinates.
          Requested convergence is 1.0D-08 RMS, and 1.0D-07 maximum.
          Secondary convergence is 1.0D-12 RMS, and 1.0D-12 maximum.
          NewPWx=T KeepS1=F KeepF1=F KeepIn=T MapXYZ=F SortEE=F KeepMc=T.
          MDV=     104857524 using IRadAn=       2.
 Generate precomputed XC quadrature information.
 Keep R1 ints in memory in canonical form, NReq=1272309.
 FoFCou: FMM=F IPFlag=           0 FMFlag=           0 FMFlg1=           0
         NFxFlg=           0 DoJE=F BraDBF=F KetDBF=F FulRan=T
         wScrn=  0.000000 ICntrl=     600 IOpCl=  0 I1Cent=           0 NGrid=           0
         NMat0=    1 NMatS0=    903 NMatT0=    0 NMatD0=    1 NMtDS0=    0 NMtDT0=    0
 Symmetry not used in FoFCou.
          Solving linear equations simultaneously, MaxMat=       0.
          There are    12 degrees of freedom in the 1st order CPHF.  IDoFFX=6 NUNeed=     0.
      6 vectors produced by pass  0 Test12= 2.04D-15 8.33D-09 XBig12= 1.57D-01 2.50D-01.
 AX will form     6 AO Fock derivatives at one time.
      6 vectors produced by pass  1 Test12= 2.04D-15 8.33D-09 XBig12= 2.64D-02 1.05D-01.
      6 vectors produced by pass  2 Test12= 2.04D-15 8.33D-09 XBig12= 8.88D-04 1.06D-02.
      6 vectors produced by pass  3 Test12= 2.04D-15 8.33D-09 XBig12= 3.45D-05 2.58D-03.
      6 vectors produced by pass  4 Test12= 2.04D-15 8.33D-09 XBig12= 1.05D-07 9.01D-05.
      6 vectors produced by pass  5 Test12= 2.04D-15 8.33D-09 XBig12= 6.88D-11 2.21D-06.
      3 vectors produced by pass  6 Test12= 2.04D-15 8.33D-09 XBig12= 7.22D-14 8.17D-08.
 InvSVY:  IOpt=1 It=  1 EMax= 7.77D-16
 Solved reduced A of dimension    39 with     6 vectors.
 End of Minotr F.D. properties file   721 does not exist.
 End of Minotr F.D. properties file   722 does not exist.
 End of Minotr F.D. properties file   788 does not exist.
 Leave Link 1002 at Thu Apr 14 12:47:40 2016, MaxMem=   104857600 cpu:         0.9
 (Enter /home/projets/algogen/g09.D01/g09/l601.exe)
 Copying SCF densities to generalized density rwf, IOpCl= 0 IROHF=0.

 **********************************************************************

            Population analysis using the SCF density.

 **********************************************************************

 Alpha  occ. eigenvalues --  -14.38574 -10.23572  -0.99707  -0.53062  -0.45821
 Alpha  occ. eigenvalues --   -0.39398  -0.34509
 Alpha virt. eigenvalues --   -0.06604   0.00022   0.03278   0.21637   0.30265
 Alpha virt. eigenvalues --    0.39550   0.40730   0.52639   0.54450   0.63153
 Alpha virt. eigenvalues --    0.63877   0.72890   0.99998   1.02906   1.24016
 Alpha virt. eigenvalues --    1.35640   1.42187   1.56844   1.73186   1.88422
 Alpha virt. eigenvalues --    2.00698   2.14812   2.22044   2.36659   2.43626
 Alpha virt. eigenvalues --    2.68704   2.73577   2.82990   2.98507   3.17404
 Alpha virt. eigenvalues --    3.71730   3.82414   4.31932  23.91837  35.52421
     Molecular Orbital Coefficients:
                           1         2         3         4         5
                           O         O         O         O         O
     Eigenvalues --   -14.38574 -10.23572  -0.99707  -0.53062  -0.45821
   1 1   C  1S         -0.00007   0.56274  -0.07667   0.03423   0.06972
   2        2S          0.00059   0.46349  -0.11607   0.05503   0.11086
   3        2PX        -0.00005   0.00009   0.01768  -0.13510   0.08069
   4        2PY         0.00000   0.00000   0.00000   0.00000   0.00000
   5        2PZ         0.00041   0.00086   0.10595   0.05060  -0.02382
   6        3S         -0.00180   0.01793   0.29630  -0.15825  -0.32164
   7        3PX         0.00028   0.00228   0.02520  -0.19518   0.11450
   8        3PY         0.00000   0.00000   0.00000   0.00000   0.00000
   9        3PZ        -0.00370   0.00674   0.12275   0.06357  -0.03734
  10        4S          0.00319   0.00065   0.05553  -0.13641  -0.29095
  11        4PX        -0.00020  -0.00046   0.00483  -0.09660   0.03962
  12        4PY         0.00000   0.00000   0.00000   0.00000   0.00000
  13        4PZ         0.00256   0.00157  -0.00152   0.03392   0.01221
  14        5D 0       -0.00243   0.00325   0.02224   0.01813  -0.00645
  15        5D+1       -0.00001   0.00080   0.00790  -0.02916   0.01838
  16        5D-1        0.00000   0.00000   0.00000   0.00000   0.00000
  17        5D+2        0.00006   0.00105   0.00500  -0.01458   0.00219
  18        5D-2        0.00000   0.00000   0.00000   0.00000   0.00000
  19 2   N  1S          0.55725  -0.00026  -0.09748  -0.06045  -0.05438
  20        2S          0.46597   0.00020  -0.15327  -0.09682  -0.08739
  21        2PX         0.00023  -0.00007   0.01313  -0.12256   0.10589
  22        2PY         0.00000   0.00000   0.00000   0.00000   0.00000
  23        2PZ        -0.00083  -0.00087  -0.09564   0.04189   0.17848
  24        3S          0.01559  -0.00238   0.41892   0.28110   0.25360
  25        3PX         0.00000   0.00012   0.02226  -0.18154   0.16097
  26        3PY         0.00000   0.00000   0.00000   0.00000   0.00000
  27        3PZ        -0.00351   0.00519  -0.12863   0.05569   0.24069
  28        4S         -0.00787  -0.00686   0.26274   0.31213   0.37260
  29        4PX        -0.00019  -0.00012   0.00910  -0.10794   0.12377
  30        4PY         0.00000   0.00000   0.00000   0.00000   0.00000
  31        4PZ         0.00227   0.00271  -0.05045   0.03935   0.16649
  32        5D 0        0.00143  -0.00243   0.02033   0.00002  -0.02204
  33        5D+1        0.00002   0.00011  -0.00547   0.02201  -0.01537
  34        5D-1        0.00000   0.00000   0.00000   0.00000   0.00000
  35        5D+2       -0.00005   0.00016   0.00412  -0.00419   0.00586
  36        5D-2        0.00000   0.00000   0.00000   0.00000   0.00000
  37 3   H  1S          0.00037   0.00003   0.07044  -0.15508   0.05080
  38        2S         -0.00044  -0.00268   0.07416  -0.25003   0.09634
  39        3S          0.00066   0.00180  -0.00482  -0.05106   0.07535
  40        4PX         0.00011   0.00224  -0.01741   0.02236  -0.00495
  41        4PY         0.00000   0.00000   0.00000   0.00000   0.00000
  42        4PZ         0.00038   0.00065   0.00489   0.00290   0.01672
                           6         7         8         9        10
                           O         O         V         V         V
     Eigenvalues --    -0.39398  -0.34509  -0.06604   0.00022   0.03278
   1 1   C  1S          0.00000  -0.05137  -0.02749   0.00000   0.02658
   2        2S          0.00000  -0.08312  -0.04371   0.00000   0.04198
   3        2PX         0.00000  -0.03122  -0.10939   0.00000  -0.19215
   4        2PY         0.17000   0.00000   0.00000   0.22296   0.00000
   5        2PZ         0.00000  -0.21305  -0.04345   0.00000   0.03327
   6        3S          0.00000   0.22534   0.11734   0.00000  -0.10388
   7        3PX         0.00000  -0.03799  -0.16430   0.00000  -0.26680
   8        3PY         0.25143   0.00000   0.00000   0.33584   0.00000
   9        3PZ         0.00000  -0.27883  -0.06433   0.00000   0.02540
  10        4S          0.00000   0.49523   0.30727   0.00000  -0.94541
  11        4PX         0.00000  -0.03554  -0.25216   0.00000  -0.80260
  12        4PY         0.18074   0.00000   0.00000   0.65960   0.00000
  13        4PZ         0.00000  -0.13935  -0.12020   0.00000  -0.01122
  14        5D 0        0.00000  -0.02700   0.01027   0.00000  -0.01512
  15        5D+1        0.00000  -0.01737   0.02590   0.00000  -0.00698
  16        5D-1        0.04485   0.00000   0.00000  -0.01711   0.00000
  17        5D+2        0.00000   0.00366  -0.01689   0.00000   0.00418
  18        5D-2        0.00866   0.00000   0.00000   0.01145   0.00000
  19 2   N  1S          0.00000  -0.00473  -0.00819   0.00000   0.02135
  20        2S          0.00000  -0.00718  -0.01286   0.00000   0.03470
  21        2PX         0.00000  -0.06488   0.24907   0.00000   0.02634
  22        2PY         0.22806   0.00000   0.00000  -0.21020   0.00000
  23        2PZ         0.00000   0.17365  -0.00763   0.00000  -0.01737
  24        3S          0.00000   0.01834   0.02828   0.00000  -0.11390
  25        3PX         0.00000  -0.09626   0.35448   0.00000   0.03932
  26        3PY         0.33507   0.00000   0.00000  -0.29029   0.00000
  27        3PZ         0.00000   0.23730  -0.01755   0.00000  -0.02979
  28        4S          0.00000   0.03539   0.19254   0.00000  -0.16980
  29        4PX         0.00000  -0.09612   0.57339   0.00000   0.11002
  30        4PY         0.27719   0.00000   0.00000  -0.55026   0.00000
  31        4PZ         0.00000   0.21645  -0.03288   0.00000  -0.11665
  32        5D 0        0.00000  -0.01973   0.00336   0.00000  -0.00669
  33        5D+1        0.00000   0.01031  -0.00063   0.00000   0.01754
  34        5D-1       -0.03138   0.00000   0.00000  -0.01385   0.00000
  35        5D+2        0.00000  -0.00106  -0.00154   0.00000   0.01093
  36        5D-2        0.00498   0.00000   0.00000  -0.00252   0.00000
  37 3   H  1S          0.00000   0.01201  -0.12086   0.00000   0.06893
  38        2S          0.00000   0.01357  -0.29531   0.00000   0.13690
  39        3S          0.00000   0.08501  -0.41136   0.00000   1.57014
  40        4PX         0.00000   0.00612  -0.00082   0.00000   0.02977
  41        4PY         0.02332   0.00000   0.00000   0.01712   0.00000
  42        4PZ         0.00000  -0.01698   0.02914   0.00000   0.02239
                          11        12        13        14        15
                           V         V         V         V         V
     Eigenvalues --     0.21637   0.30265   0.39550   0.40730   0.52639
   1 1   C  1S         -0.00726  -0.02730   0.00000  -0.04202  -0.05561
   2        2S         -0.01119  -0.04666   0.00000  -0.07522  -0.11023
   3        2PX        -0.02974   0.05044   0.00000  -0.19486  -0.05172
   4        2PY         0.00000   0.00000  -0.22824   0.00000   0.00000
   5        2PZ        -0.01023  -0.00166   0.00000  -0.07989   0.12205
   6        3S         -0.01027   0.04884   0.00000   0.37579   0.98620
   7        3PX        -0.03695   0.12162   0.00000  -0.70538  -0.28326
   8        3PY         0.00000   0.00000  -0.83931   0.00000   0.00000
   9        3PZ        -0.03034   0.05726   0.00000  -0.41402   0.36673
  10        4S          1.89786   3.02921   0.00000  -0.65099   0.39596
  11        4PX        -0.38365   0.71829   0.00000   1.07280   0.09249
  12        4PY         0.00000   0.00000   1.12628   0.00000   0.00000
  13        4PZ         1.40312   2.23944   0.00000   0.21577  -0.08008
  14        5D 0       -0.00703   0.01310   0.00000  -0.04049  -0.03089
  15        5D+1        0.00746   0.01642   0.00000  -0.03306  -0.03291
  16        5D-1        0.00000   0.00000  -0.05003   0.00000   0.00000
  17        5D+2        0.01708  -0.01841   0.00000   0.01132  -0.00588
  18        5D-2        0.00000   0.00000  -0.00325   0.00000   0.00000
  19 2   N  1S          0.03337   0.03283   0.00000  -0.01424   0.03774
  20        2S          0.05409   0.05339   0.00000  -0.02528   0.06115
  21        2PX         0.00126   0.04037   0.00000  -0.04007  -0.01398
  22        2PY         0.00000   0.00000  -0.04388   0.00000   0.00000
  23        2PZ         0.07152  -0.00123   0.00000   0.04989  -0.05289
  24        3S         -0.12873  -0.11650   0.00000   0.07581  -0.13059
  25        3PX        -0.00871   0.04738   0.00000  -0.15542  -0.03390
  26        3PY         0.00000   0.00000  -0.15658   0.00000   0.00000
  27        3PZ         0.10504  -0.01491   0.00000   0.08744  -0.39534
  28        4S         -1.59365  -2.74924   0.00000   0.54357  -0.76533
  29        4PX         0.09657   0.05267   0.00000   0.18155  -0.01759
  30        4PY         0.00000   0.00000   0.10833   0.00000   0.00000
  31        4PZ         0.75322   1.07073   0.00000  -0.55537   1.75040
  32        5D 0       -0.02481  -0.01977   0.00000   0.03081   0.06352
  33        5D+1       -0.00403   0.00718   0.00000   0.02841   0.00360
  34        5D-1        0.00000   0.00000   0.03694   0.00000   0.00000
  35        5D+2        0.01254  -0.02885   0.00000   0.00349   0.00739
  36        5D-2        0.00000   0.00000  -0.00059   0.00000   0.00000
  37 3   H  1S          0.12321  -0.08845   0.00000   0.04292   0.01801
  38        2S          0.93163  -1.27946   0.00000   0.07796   0.51211
  39        3S         -1.27661   0.15583   0.00000  -0.63947  -0.20645
  40        4PX        -0.02806   0.02102   0.00000   0.04099  -0.08686
  41        4PY         0.00000   0.00000  -0.01057   0.00000   0.00000
  42        4PZ         0.01514   0.00249   0.00000  -0.01897  -0.00794
                          16        17        18        19        20
                           V         V         V         V         V
     Eigenvalues --     0.54450   0.63153   0.63877   0.72890   0.99998
   1 1   C  1S          0.07241   0.01806   0.00000  -0.06607   0.00000
   2        2S          0.13938   0.03624   0.00000  -0.12918   0.00000
   3        2PX        -0.16567   0.05437   0.00000   0.02414   0.00000
   4        2PY         0.00000   0.00000   0.10174   0.00000  -0.05226
   5        2PZ         0.10754   0.06722   0.00000   0.23584   0.00000
   6        3S         -1.11338  -0.38334   0.00000   0.80805   0.00000
   7        3PX        -0.44110   0.15742   0.00000   0.03330   0.00000
   8        3PY         0.00000   0.00000   0.21944   0.00000  -0.05742
   9        3PZ         0.68145   0.28070   0.00000   0.61899   0.00000
  10        4S          3.54417   1.30041   0.00000  -0.68715   0.00000
  11        4PX         1.36656  -0.28745   0.00000  -0.30194   0.00000
  12        4PY         0.00000   0.00000  -0.85407   0.00000  -0.06009
  13        4PZ         0.51279   0.16143   0.00000  -0.22944   0.00000
  14        5D 0        0.03980  -0.02657   0.00000  -0.14728   0.00000
  15        5D+1        0.03843  -0.04529   0.00000  -0.00247   0.00000
  16        5D-1        0.00000   0.00000  -0.06692   0.00000   0.09156
  17        5D+2        0.02246  -0.00170   0.00000  -0.00676   0.00000
  18        5D-2        0.00000   0.00000   0.01173   0.00000   0.56321
  19 2   N  1S          0.01405   0.01068   0.00000  -0.01161   0.00000
  20        2S          0.02744   0.02222   0.00000  -0.02960   0.00000
  21        2PX         0.06573  -0.22364   0.00000   0.03973   0.00000
  22        2PY         0.00000   0.00000  -0.24544   0.00000  -0.01137
  23        2PZ         0.01864   0.03057   0.00000   0.28111   0.00000
  24        3S         -0.10936  -0.15807   0.00000   0.36472   0.00000
  25        3PX         0.17908  -0.79109   0.00000   0.10387   0.00000
  26        3PY         0.00000   0.00000  -0.81550   0.00000   0.01815
  27        3PZ         0.18129   0.10343   0.00000   0.69633   0.00000
  28        4S         -1.41580  -0.24729   0.00000  -0.76099   0.00000
  29        4PX        -0.28861   1.54334   0.00000  -0.13362   0.00000
  30        4PY         0.00000   0.00000   1.48667   0.00000  -0.11316
  31        4PZ         0.73612   0.12332   0.00000  -0.25548   0.00000
  32        5D 0       -0.05906   0.00231   0.00000   0.09805   0.00000
  33        5D+1        0.01671   0.02656   0.00000   0.00400   0.00000
  34        5D-1        0.00000   0.00000   0.01517   0.00000  -0.03621
  35        5D+2       -0.00807  -0.01914   0.00000  -0.00826   0.00000
  36        5D-2        0.00000   0.00000   0.00242   0.00000   0.17822
  37 3   H  1S          0.06576   0.04830   0.00000  -0.01658   0.00000
  38        2S         -0.09151  -0.42056   0.00000  -0.08295   0.00000
  39        3S         -1.51403  -0.58337   0.00000   0.68882   0.00000
  40        4PX         0.10272   0.10169   0.00000  -0.06782   0.00000
  41        4PY         0.00000   0.00000   0.02781   0.00000   0.61146
  42        4PZ         0.04523  -0.05651   0.00000  -0.11760   0.00000
                          21        22        23        24        25
                           V         V         V         V         V
     Eigenvalues --     1.02906   1.24016   1.35640   1.42187   1.56844
   1 1   C  1S         -0.02267   0.00929   0.00000   0.02010   0.01239
   2        2S         -0.02621   0.02376   0.00000   0.03947   0.02457
   3        2PX         0.00472   0.02801   0.00000  -0.03611  -0.06354
   4        2PY         0.00000   0.00000  -0.05235   0.00000   0.00000
   5        2PZ         0.13145   0.01411   0.00000  -0.04209  -0.05894
   6        3S         -0.01640  -0.19154   0.00000  -0.31614  -0.14374
   7        3PX         0.07279   0.05281   0.00000  -0.18080   0.01762
   8        3PY         0.00000   0.00000  -0.10054   0.00000   0.00000
   9        3PZ        -0.35040  -0.19559   0.00000   0.02513  -0.20725
  10        4S         -4.35886  -1.12531   0.00000   1.31387  -1.40858
  11        4PX         0.00465  -0.29822   0.00000   0.55337  -0.15415
  12        4PY         0.00000   0.00000   0.19507   0.00000   0.00000
  13        4PZ        -2.30544  -0.52911   0.00000   0.65363  -0.57600
  14        5D 0       -0.40436  -0.09522   0.00000   0.01092  -0.15335
  15        5D+1        0.06309  -0.61280   0.00000   0.21844   0.60118
  16        5D-1        0.00000   0.00000   0.86684   0.00000   0.00000
  17        5D+2       -0.01668   0.37506   0.00000   0.76655  -0.00533
  18        5D-2        0.00000   0.00000  -0.26341   0.00000   0.00000
  19 2   N  1S          0.11088   0.01282   0.00000  -0.00763  -0.00214
  20        2S          0.21948   0.02972   0.00000  -0.01734   0.00236
  21        2PX         0.00262   0.10981   0.00000  -0.06632   0.03006
  22        2PY         0.00000   0.00000  -0.09125   0.00000   0.00000
  23        2PZ         0.12363  -0.02974   0.00000   0.00002  -0.06626
  24        3S         -1.81880  -0.37596   0.00000   0.18170  -0.23528
  25        3PX         0.04153   0.20516   0.00000  -0.11777  -0.09540
  26        3PY         0.00000   0.00000  -0.22763   0.00000   0.00000
  27        3PZ        -0.05277  -0.13041   0.00000  -0.00206  -0.19703
  28        4S          5.83607   1.63465   0.00000  -1.07439   1.74220
  29        4PX        -0.15308   0.26363   0.00000   0.11214   0.17304
  30        4PY         0.00000   0.00000  -0.14945   0.00000   0.00000
  31        4PZ        -2.17153  -0.58813   0.00000   0.26761  -0.65789
  32        5D 0        0.09833   0.01894   0.00000  -0.05035   0.00874
  33        5D+1       -0.01741   0.21755   0.00000  -0.08954  -0.05837
  34        5D-1        0.00000   0.00000  -0.26916   0.00000   0.00000
  35        5D+2        0.00615  -0.01168   0.00000   0.17141  -0.42931
  36        5D-2        0.00000   0.00000  -0.05071   0.00000   0.00000
  37 3   H  1S          0.08980  -0.07857   0.00000   0.30212   0.16086
  38        2S         -0.38730   0.07575   0.00000  -1.16724  -0.34938
  39        3S          0.45617  -0.02787   0.00000   0.20946   0.26489
  40        4PX        -0.01961   0.11476   0.00000  -0.41158   0.18666
  41        4PY         0.00000   0.00000   0.08217   0.00000   0.00000
  42        4PZ         0.10379  -0.47472   0.00000   0.06130  -0.77527
                          26        27        28        29        30
                           V         V         V         V         V
     Eigenvalues --     1.73186   1.88422   2.00698   2.14812   2.22044
   1 1   C  1S          0.00000  -0.02913   0.00000   0.00471  -0.02060
   2        2S          0.00000  -0.04852   0.00000   0.02434  -0.04802
   3        2PX         0.00000   0.04046   0.00000   0.41847   0.24505
   4        2PY        -0.08092   0.00000   0.04249   0.00000   0.00000
   5        2PZ         0.00000   0.38717   0.00000   0.20805  -0.19699
   6        3S          0.00000  -0.00585   0.00000  -0.32267   0.35195
   7        3PX         0.00000   0.21757   0.00000  -0.56628   0.09204
   8        3PY         0.04943   0.00000  -0.03665   0.00000   0.00000
   9        3PZ         0.00000  -0.03952   0.00000  -0.34274   0.35069
  10        4S          0.00000   0.71443   0.00000  -0.14792   0.97768
  11        4PX         0.00000   0.24595   0.00000   0.26007   0.34141
  12        4PY        -0.22779   0.00000   0.05624   0.00000   0.00000
  13        4PZ         0.00000   0.58350   0.00000  -0.15505   0.12189
  14        5D 0        0.00000   0.97631   0.00000  -0.17274  -0.51135
  15        5D+1        0.00000   0.18062   0.00000   0.29247  -0.14583
  16        5D-1       -0.26678   0.00000   0.02992   0.00000   0.00000
  17        5D+2        0.00000   0.41083   0.00000   0.18112   0.64341
  18        5D-2       -0.83877   0.00000  -0.22643   0.00000   0.00000
  19 2   N  1S          0.00000   0.04173   0.00000   0.01028  -0.01932
  20        2S          0.00000   0.09646   0.00000   0.01687  -0.04433
  21        2PX         0.00000   0.00851   0.00000  -0.00770   0.00036
  22        2PY         0.01895   0.00000  -0.00876   0.00000   0.00000
  23        2PZ         0.00000   0.09446   0.00000  -0.01463  -0.00574
  24        3S          0.00000  -0.90802   0.00000  -0.16418   0.49115
  25        3PX         0.00000  -0.02305   0.00000  -0.13815   0.05302
  26        3PY         0.09802   0.00000  -0.01009   0.00000   0.00000
  27        3PZ         0.00000   0.65365   0.00000  -0.11992  -0.19488
  28        4S          0.00000   0.06878   0.00000   0.80407  -0.95281
  29        4PX         0.00000   0.05621   0.00000   0.10519  -0.09175
  30        4PY        -0.04557   0.00000   0.01082   0.00000   0.00000
  31        4PZ         0.00000  -0.49140   0.00000  -0.23430   0.55690
  32        5D 0        0.00000   0.23081   0.00000   0.01551  -0.10078
  33        5D+1        0.00000  -0.00643   0.00000  -0.15165  -0.24090
  34        5D-1        0.07042   0.00000  -0.02345   0.00000   0.00000
  35        5D+2        0.00000  -0.20884   0.00000   0.27384  -0.64679
  36        5D-2        0.01999   0.00000   0.99524   0.00000   0.00000
  37 3   H  1S          0.00000   0.01836   0.00000  -1.23795  -0.13635
  38        2S          0.00000  -0.52851   0.00000   1.37413  -0.35968
  39        3S          0.00000  -0.21525   0.00000  -0.83086  -0.22760
  40        4PX         0.00000   0.41169   0.00000   0.14881   0.51558
  41        4PY         0.89336   0.00000  -0.19269   0.00000   0.00000
  42        4PZ         0.00000   0.09254   0.00000  -0.22981   0.72306
                          31        32        33        34        35
                           V         V         V         V         V
     Eigenvalues --     2.36659   2.43626   2.68704   2.73577   2.82990
   1 1   C  1S          0.01684   0.00000  -0.00284   0.00000   0.04884
   2        2S          0.04064   0.00000   0.00407   0.00000   0.12652
   3        2PX        -0.61361   0.00000  -0.14222   0.00000   0.14205
   4        2PY         0.00000   0.83220   0.00000  -1.00638   0.00000
   5        2PZ         0.14319   0.00000  -0.08544   0.00000  -0.54089
   6        3S         -0.19676   0.00000  -0.22312   0.00000  -1.04087
   7        3PX        -0.06098   0.00000   0.59591   0.00000  -0.48309
   8        3PY         0.00000  -0.67721   0.00000   1.38412   0.00000
   9        3PZ        -0.22109   0.00000  -0.37792   0.00000  -0.38255
  10        4S         -0.62487   0.00000  -0.86100   0.00000  -1.48793
  11        4PX        -0.74080   0.00000  -0.03005   0.00000  -0.04018
  12        4PY         0.00000   0.54128   0.00000  -0.31517   0.00000
  13        4PZ        -0.11046   0.00000  -0.40929   0.00000  -0.75523
  14        5D 0        0.25934   0.00000  -0.51143   0.00000  -0.31338
  15        5D+1       -0.71143   0.00000  -0.11700   0.00000  -0.08121
  16        5D-1        0.00000   0.61596   0.00000   0.55965   0.00000
  17        5D+2       -0.30834   0.00000   0.30966   0.00000  -0.18756
  18        5D-2        0.00000  -0.03271   0.00000   0.04776   0.00000
  19 2   N  1S          0.01127   0.00000  -0.01187   0.00000  -0.00227
  20        2S          0.01935   0.00000  -0.01950   0.00000  -0.00305
  21        2PX        -0.01813   0.00000   0.26044   0.00000  -0.10884
  22        2PY         0.00000  -0.03589   0.00000  -0.20378   0.00000
  23        2PZ         0.06460   0.00000  -0.23250   0.00000  -0.37732
  24        3S         -0.08035   0.00000  -0.09997   0.00000  -0.10109
  25        3PX         0.00981   0.00000  -0.15275   0.00000   0.08760
  26        3PY         0.00000   0.00971   0.00000  -0.00600   0.00000
  27        3PZ         0.05846   0.00000  -0.17211   0.00000   0.04750
  28        4S         -0.01277   0.00000   1.93306   0.00000   1.78984
  29        4PX         0.18948   0.00000   0.59404   0.00000  -0.23315
  30        4PY         0.00000  -0.38815   0.00000  -0.24421   0.00000
  31        4PZ         0.04868   0.00000  -1.05250   0.00000  -0.96860
  32        5D 0       -0.04801   0.00000   0.49668   0.00000   1.05822
  33        5D+1       -0.65219   0.00000  -0.75110   0.00000   0.17302
  34        5D-1        0.00000   0.82469   0.00000   0.80839   0.00000
  35        5D+2       -0.29524   0.00000   0.46818   0.00000  -0.19662
  36        5D-2        0.00000  -0.01078   0.00000   0.02946   0.00000
  37 3   H  1S         -0.52250   0.00000   0.53112   0.00000  -0.33518
  38        2S          1.52219   0.00000  -1.85909   0.00000   1.00207
  39        3S          0.00810   0.00000   0.30068   0.00000  -0.03379
  40        4PX        -0.78267   0.00000   0.99000   0.00000  -0.58783
  41        4PY         0.00000   0.06939   0.00000  -0.13010   0.00000
  42        4PZ        -0.20841   0.00000  -0.15264   0.00000   0.01671
                          36        37        38        39        40
                           V         V         V         V         V
     Eigenvalues --     2.98507   3.17404   3.71730   3.82414   4.31932
   1 1   C  1S         -0.06924  -0.04543   0.00000  -0.01171  -0.05618
   2        2S         -0.14979  -0.07514   0.00000  -0.02553  -0.13928
   3        2PX         0.08631  -1.11081   0.00000   0.17265   0.05199
   4        2PY         0.00000   0.00000   0.16085   0.00000   0.00000
   5        2PZ        -1.14154  -0.18483   0.00000   0.02540   0.17760
   6        3S          0.99741   0.38243   0.00000   0.21609   1.18603
   7        3PX        -0.15686   2.19695   0.00000  -0.30805  -0.19260
   8        3PY         0.00000   0.00000  -0.37354   0.00000   0.00000
   9        3PZ         2.91166   0.41209   0.00000   0.12809   1.48717
  10        4S          2.14092   0.14733   0.00000  -0.43093   1.25863
  11        4PX         0.13778  -0.21929   0.00000   0.10739   0.03038
  12        4PY         0.00000   0.00000   0.24423   0.00000   0.00000
  13        4PZ         0.34622  -0.13323   0.00000  -0.14461   0.54100
  14        5D 0        1.26135  -0.31771   0.00000   0.09315   0.91051
  15        5D+1       -0.00284   0.72500   0.00000  -0.28658  -0.05597
  16        5D-1        0.00000   0.00000  -0.28770   0.00000   0.00000
  17        5D+2        0.03025   0.64913   0.00000  -0.03450  -0.07413
  18        5D-2        0.00000   0.00000  -0.01210   0.00000   0.00000
  19 2   N  1S          0.04966  -0.00018   0.00000   0.00507   0.04531
  20        2S          0.12488   0.00312   0.00000   0.01147   0.08018
  21        2PX         0.05916  -0.20392   0.00000  -1.24868   0.12536
  22        2PY         0.00000   0.00000  -1.27869   0.00000   0.00000
  23        2PZ         0.11536  -0.10474   0.00000  -0.11091  -1.27820
  24        3S         -1.14963  -0.11201   0.00000  -0.17099  -0.54969
  25        3PX        -0.07537  -0.00084   0.00000   1.58444  -0.15991
  26        3PY         0.00000   0.00000   1.56077   0.00000   0.00000
  27        3PZ         1.32594   0.12287   0.00000   0.22020   2.57060
  28        4S         -2.02901   0.38178   0.00000   0.39167  -2.09930
  29        4PX         0.21997  -0.12843   0.00000  -0.49574  -0.00053
  30        4PY         0.00000   0.00000  -0.62547   0.00000   0.00000
  31        4PZ         0.91882  -0.30696   0.00000  -0.24028   0.29590
  32        5D 0       -0.68598   0.03634   0.00000  -0.09558  -0.87183
  33        5D+1       -0.17171   0.50177   0.00000  -0.33084   0.04171
  34        5D-1        0.00000   0.00000  -0.20822   0.00000   0.00000
  35        5D+2        0.12752   0.12337   0.00000   0.10358  -0.06722
  36        5D-2        0.00000   0.00000  -0.00913   0.00000   0.00000
  37 3   H  1S         -0.16530  -0.45144   0.00000   0.26945  -0.03565
  38        2S          0.07021  -1.00022   0.00000  -0.39544   0.30129
  39        3S         -0.40572   0.14588   0.00000   0.23830  -0.09607
  40        4PX         0.14015   1.04118   0.00000   0.21633  -0.25235
  41        4PY         0.00000   0.00000   0.03694   0.00000   0.00000
  42        4PZ        -0.21674   0.40576   0.00000  -0.23471   0.07199
                          41        42
                           V         V
     Eigenvalues --    23.91837  35.52421
   1 1   C  1S         -2.03818   0.09642
   2        2S          2.24435  -0.14023
   3        2PX         0.03828   0.00118
   4        2PY         0.00000   0.00000
   5        2PZ         0.06114  -0.03282
   6        3S         -0.75162   0.16847
   7        3PX        -0.16255  -0.00988
   8        3PY         0.00000   0.00000
   9        3PZ        -0.55341   0.29686
  10        4S         -0.26688  -0.07341
  11        4PX         0.01210   0.01057
  12        4PY         0.00000   0.00000
  13        4PZ        -0.13633  -0.09586
  14        5D 0       -0.23645   0.18878
  15        5D+1       -0.05058   0.00384
  16        5D-1        0.00000   0.00000
  17        5D+2       -0.07015  -0.00005
  18        5D-2        0.00000   0.00000
  19 2   N  1S         -0.08517  -2.14735
  20        2S          0.04985   2.28510
  21        2PX         0.00617  -0.00012
  22        2PY         0.00000   0.00000
  23        2PZ         0.07699  -0.05303
  24        3S          0.18769  -0.51014
  25        3PX        -0.00692  -0.00318
  26        3PY         0.00000   0.00000
  27        3PZ        -0.45128   0.28886
  28        4S          0.58512   0.25202
  29        4PX         0.00206   0.01429
  30        4PY         0.00000   0.00000
  31        4PZ        -0.20966  -0.08913
  32        5D 0        0.23018  -0.10004
  33        5D+1       -0.00782  -0.00338
  34        5D-1        0.00000   0.00000
  35        5D+2       -0.01295   0.00436
  36        5D-2        0.00000   0.00000
  37 3   H  1S          0.00103  -0.02367
  38        2S          0.18202   0.01861
  39        3S         -0.06983  -0.03690
  40        4PX        -0.15585   0.00133
  41        4PY         0.00000   0.00000
  42        4PZ        -0.04822  -0.02282
     Density Matrix:
                           1         2         3         4         5
   1 1   C  1S          0.66246
   2        2S          0.56721   0.50104
   3        2PX         0.00259   0.00419   0.05210
   4        2PY         0.00000   0.00000   0.00000   0.05780
   5        2PZ         0.00675   0.01190  -0.00046   0.00000   0.11949
   6        3S         -0.10409  -0.17835  -0.01274   0.00000  -0.03389
   7        3PX         0.00520   0.00648   0.07448   0.00000  -0.00367
   8        3PY         0.00000   0.00000   0.00000   0.08548   0.00000
   9        3PZ         0.01656   0.02282  -0.00145   0.00000   0.15304
  10        4S         -0.10857  -0.17413  -0.03906   0.00000  -0.19919
  11        4PX         0.00131   0.00252   0.03489   0.00000   0.00450
  12        4PY         0.00000   0.00000   0.00000   0.06145   0.00000
  13        4PZ         0.02035   0.03142   0.00145   0.00000   0.06191
  14        5D 0        0.00337   0.00290  -0.00347   0.00000   0.01836
  15        5D+1        0.00204   0.00266   0.01221   0.00000   0.00525
  16        5D-1        0.00000   0.00000   0.00000   0.01525   0.00000
  17        5D+2       -0.00065  -0.00191   0.00424   0.00000  -0.00208
  18        5D-2        0.00000   0.00000   0.00000   0.00294   0.00000
  19 2   N  1S          0.00335   0.00512   0.00435   0.00000  -0.02171
  20        2S          0.00559   0.00747   0.00704   0.00000  -0.03467
  21        2PX         0.01095   0.01766   0.05472   0.00000   0.01298
  22        2PY         0.00000   0.00000   0.00000   0.07754   0.00000
  23        2PZ         0.02360   0.03671   0.00326   0.00000  -0.09852
  24        3S         -0.01419  -0.01532  -0.02136   0.00000   0.09733
  25        3PX         0.01663   0.02666   0.08183   0.00000   0.01969
  26        3PY         0.00000   0.00000   0.00000   0.11392   0.00000
  27        3PZ         0.03856   0.05471   0.00443   0.00000  -0.13420
  28        4S          0.02168   0.04372  -0.01713   0.00000   0.05441
  29        4PX         0.01821   0.02932   0.05546   0.00000   0.02607
  30        4PY         0.00000   0.00000   0.00000   0.09424   0.00000
  31        4PZ         0.01445   0.01949   0.00094   0.00000  -0.10686
  32        5D 0       -0.00690  -0.00858  -0.00161   0.00000   0.01377
  33        5D+1       -0.00073  -0.00133  -0.00927   0.00000  -0.00259
  34        5D-1        0.00000   0.00000   0.00000  -0.01067   0.00000
  35        5D+2        0.00019   0.00020   0.00229   0.00000   0.00062
  36        5D-2        0.00000   0.00000   0.00000   0.00169   0.00000
  37 3   H  1S         -0.01554  -0.02412   0.05184   0.00000  -0.00830
  38        2S         -0.01947  -0.02811   0.08488   0.00000  -0.01996
  39        3S          0.00104  -0.00025   0.02048   0.00000  -0.04600
  40        4PX         0.00540   0.00646  -0.00784   0.00000  -0.00380
  41        4PY         0.00000   0.00000   0.00000   0.00793   0.00000
  42        4PZ         0.00426   0.00632   0.00315   0.00000   0.00777
                           6         7         8         9        10
   6        3S          0.53479
   7        3PX        -0.01399   0.10658
   8        3PY         0.00000   0.00000   0.12643
   9        3PZ        -0.04877  -0.00597   0.00000   0.19662
  10        4S          0.48645  -0.04820   0.00000  -0.25817   0.70322
  11        4PX        -0.00808   0.04973   0.00000   0.00576  -0.03137
  12        4PY         0.00000   0.00000   0.09089   0.00000   0.00000
  13        4PZ        -0.08225   0.00007   0.00000   0.08074  -0.15453
  14        5D 0       -0.00045  -0.00537   0.00000   0.02336  -0.02548
  15        5D+1       -0.00571   0.01731   0.00000   0.00656  -0.01907
  16        5D-1        0.00000   0.00000   0.02255   0.00000   0.00000
  17        5D+2        0.00785   0.00617   0.00000  -0.00282   0.00688
  18        5D-2        0.00000   0.00000   0.00435   0.00000   0.00000
  19 2   N  1S         -0.00780   0.00690   0.00000  -0.02904   0.03618
  20        2S         -0.00888   0.01086   0.00000  -0.04285   0.05610
  21        2PX        -0.05079   0.07769   0.00000   0.01591  -0.09099
  22        2PY         0.00000   0.00000   0.11468   0.00000   0.00000
  23        2PZ        -0.10651   0.00650   0.00000  -0.12833   0.04608
  24        3S          0.00428  -0.03194   0.00000   0.10927  -0.15948
  25        3PX        -0.07628   0.11617   0.00000   0.02404  -0.13701
  26        3PY         0.00000   0.00000   0.16849   0.00000   0.00000
  27        3PZ        -0.14154   0.00889   0.00000  -0.17471   0.06548
  28        4S         -0.16704  -0.02600   0.00000   0.05658  -0.23780
  29        4PX        -0.08339   0.07824   0.00000   0.03287  -0.13677
  30        4PY         0.00000   0.00000   0.13939   0.00000   0.00000
  31        4PZ        -0.05181   0.00379   0.00000  -0.14050   0.10119
  32        5D 0        0.01724  -0.00254   0.00000   0.01760  -0.00446
  33        5D+1        0.00433  -0.01317   0.00000  -0.00315   0.01255
  34        5D-1        0.00000   0.00000  -0.01578   0.00000   0.00000
  35        5D+2       -0.00047   0.00327   0.00000   0.00063  -0.00286
  36        5D-2        0.00000   0.00000   0.00250   0.00000   0.00000
  37 3   H  1S          0.06356   0.07481   0.00000  -0.01291   0.03246
  38        2S          0.06713   0.12236   0.00000  -0.02838   0.03382
  39        3S          0.00320   0.03050   0.00000  -0.06069   0.05375
  40        4PX        -0.01137  -0.01119   0.00000  -0.00445   0.00092
  41        4PY         0.00000   0.00000   0.01173   0.00000   0.00000
  42        4PZ        -0.01641   0.00424   0.00000   0.00980  -0.02679
                          11        12        13        14        15
  11        4PX         0.02438
  12        4PY         0.00000   0.06533
  13        4PZ         0.00430   0.00000   0.04146
  14        5D 0       -0.00188   0.00000   0.00853   0.00322
  15        5D+1        0.00840   0.00000   0.00329   0.00000   0.00311
  16        5D-1        0.00000   0.01621   0.00000   0.00000   0.00000
  17        5D+2        0.00278   0.00000  -0.00197  -0.00053   0.00088
  18        5D-2        0.00000   0.00313   0.00000   0.00000   0.00000
  19 2   N  1S          0.00655   0.00000  -0.00096  -0.00828   0.00013
  20        2S          0.01063   0.00000  -0.00385  -0.01107   0.00025
  21        2PX         0.03681   0.00000   0.01232  -0.00172   0.01350
  22        2PY         0.00000   0.08244   0.00000   0.00000   0.00000
  23        2PZ        -0.00722   0.00000  -0.04091  -0.01441  -0.00343
  24        3S         -0.03148   0.00000   0.01895   0.02447  -0.00109
  25        3PX         0.05489   0.00000   0.01838  -0.00247   0.02020
  26        3PY         0.00000   0.12112   0.00000   0.00000   0.00000
  27        3PZ        -0.00980   0.00000  -0.05609  -0.01957  -0.00467
  28        4S         -0.03075   0.00000   0.01955   0.01628  -0.00160
  29        4PX         0.03758   0.00000   0.02246   0.00009   0.01433
  30        4PY         0.00000   0.10020   0.00000   0.00000   0.00000
  31        4PZ        -0.01028   0.00000  -0.05342  -0.01464  -0.00449
  32        5D 0       -0.00015   0.00000   0.00490   0.00223   0.00019
  33        5D+1       -0.00626   0.00000  -0.00174   0.00020  -0.00229
  34        5D-1        0.00000  -0.01134   0.00000   0.00000   0.00000
  35        5D+2        0.00139   0.00000   0.00014   0.00001   0.00056
  36        5D-2        0.00000   0.00180   0.00000   0.00000   0.00000
  37 3   H  1S          0.03382   0.00000  -0.01284  -0.00379   0.01161
  38        2S          0.05569   0.00000  -0.01863  -0.00776   0.01882
  39        3S          0.00975   0.00000  -0.02529  -0.00762   0.00272
  40        4PX        -0.00532   0.00000  -0.00025  -0.00022  -0.00197
  41        4PY         0.00000   0.00843   0.00000   0.00000   0.00000
  42        4PZ         0.00202   0.00000   0.00533   0.00103   0.00111
                          16        17        18        19        20
  16        5D-1        0.00402
  17        5D+2        0.00000   0.00051
  18        5D-2        0.00078   0.00000   0.00015
  19 2   N  1S          0.00000   0.00058   0.00000   0.65332
  20        2S          0.00000   0.00091   0.00000   0.57049   0.51537
  21        2PX         0.00000   0.00369   0.00000   0.00161   0.00234
  22        2PY         0.02046   0.00000   0.00395   0.00000   0.00000
  23        2PZ         0.00000  -0.00012   0.00000  -0.00840  -0.01325
  24        3S          0.00000  -0.00276   0.00000  -0.12604  -0.21291
  25        3PX         0.00000   0.00552   0.00000   0.00101   0.00158
  26        3PY         0.03006   0.00000   0.00580   0.00000   0.00000
  27        3PZ         0.00000  -0.00010   0.00000  -0.01400  -0.02010
  28        4S          0.00000  -0.00460   0.00000  -0.13859  -0.21395
  29        4PX         0.00000   0.00308   0.00000  -0.00148  -0.00231
  30        4PY         0.02486   0.00000   0.00480   0.00000   0.00000
  31        4PZ         0.00000   0.00067   0.00000  -0.01255  -0.02225
  32        5D 0        0.00000  -0.00004   0.00000   0.00021  -0.00077
  33        5D+1        0.00000  -0.00069   0.00000   0.00001  -0.00002
  34        5D-1       -0.00282   0.00000  -0.00054   0.00000   0.00000
  35        5D+2        0.00000   0.00018   0.00000  -0.00098  -0.00151
  36        5D-2        0.00045   0.00000   0.00009   0.00000   0.00000
  37 3   H  1S          0.00000   0.00554   0.00000  -0.00021  -0.00027
  38        2S          0.00000   0.00855   0.00000   0.00468   0.00824
  39        3S          0.00000   0.00240   0.00000  -0.00115  -0.00241
  40        4PX         0.00000  -0.00080   0.00000   0.00130   0.00189
  41        4PY         0.00209   0.00000   0.00040   0.00000   0.00000
  42        4PZ         0.00000  -0.00009   0.00000  -0.00254  -0.00438
                          21        22        23        24        25
  21        2PX         0.06123
  22        2PY         0.00000   0.10402
  23        2PZ         0.00248   0.00000   0.14583
  24        3S         -0.00657   0.00000   0.04029   0.63882
  25        3PX         0.09167   0.00000   0.00456  -0.00530   0.13726
  26        3PY         0.00000   0.15283   0.00000   0.00000   0.00000
  27        3PZ         0.00315   0.00000   0.19760   0.05418   0.00586
  28        4S          0.00470   0.00000   0.12121   0.58568   0.01151
  29        4PX         0.06538   0.00000   0.00001   0.00618   0.09795
  30        4PY         0.00000   0.12643   0.00000   0.00000   0.00000
  31        4PZ        -0.00380   0.00000   0.14754   0.07229  -0.00460
  32        5D 0       -0.00158   0.00000  -0.01861   0.00520  -0.00240
  33        5D+1       -0.01013   0.00000   0.00099   0.00037  -0.01517
  34        5D-1        0.00000  -0.01431   0.00000   0.00000   0.00000
  35        5D+2        0.00251   0.00000   0.00058   0.00403   0.00379
  36        5D-2        0.00000   0.00227   0.00000   0.00000   0.00000
  37 3   H  1S          0.04907   0.00000  -0.00417  -0.00195   0.07349
  38        2S          0.08188   0.00000   0.00398  -0.02907   0.12248
  39        3S          0.01732   0.00000   0.05306   0.00860   0.02622
  40        4PX        -0.00778   0.00000   0.00556  -0.00432  -0.01167
  41        4PY         0.00000   0.01064   0.00000   0.00000   0.00000
  42        4PZ         0.00516   0.00000  -0.00062   0.01360   0.00782
                          26        27        28        29        30
  26        3PY         0.22454
  27        3PZ         0.00000   0.26787
  28        4S          0.00000   0.16332   0.61331
  29        4PX         0.00000  -0.00040   0.02283   0.07259
  30        4PY         0.18575   0.00000   0.00000   0.00000   0.15367
  31        4PZ         0.00000   0.20025   0.13737  -0.00982   0.00000
  32        5D 0        0.00000  -0.02524  -0.00712  -0.00130   0.00000
  33        5D+1        0.00000   0.00136   0.00014  -0.01064   0.00000
  34        5D-1       -0.02103   0.00000   0.00000   0.00000  -0.01740
  35        5D+2        0.00000   0.00079   0.00384   0.00263   0.00000
  36        5D-2        0.00334   0.00000   0.00000   0.00000   0.00276
  37 3   H  1S          0.00000  -0.00524  -0.02110   0.04503   0.00000
  38        2S          0.00000   0.00587  -0.04431   0.07657   0.00000
  39        3S          0.00000   0.07218   0.02772   0.01324   0.00000
  40        4PX         0.00000   0.00752   0.00152  -0.00755   0.00000
  41        4PY         0.01563   0.00000   0.00000   0.00000   0.01293
  42        4PZ         0.00000  -0.00094   0.01563   0.00687   0.00000
                          31        32        33        34        35
  31        4PZ         0.15735
  32        5D 0       -0.01794   0.00259
  33        5D+1        0.00163   0.00005   0.00171
  34        5D-1        0.00000   0.00000   0.00000   0.00197
  35        5D+2        0.00075  -0.00005  -0.00043   0.00000   0.00014
  36        5D-2        0.00000   0.00000   0.00000  -0.00031   0.00000
  37 3   H  1S          0.00280   0.00015  -0.00891   0.00000   0.00245
  38        2S          0.01078  -0.00177  -0.01450   0.00000   0.00381
  39        3S          0.05837  -0.00688  -0.00276   0.00000   0.00109
  40        4PX         0.00453  -0.00074   0.00145   0.00000  -0.00040
  41        4PY         0.00000   0.00000   0.00000  -0.00146   0.00000
  42        4PZ        -0.00204   0.00013  -0.00079   0.00000   0.00025
                          36        37        38        39        40
  36        5D-2        0.00005
  37 3   H  1S          0.00000   0.06348
  38        2S          0.00000   0.09811   0.15497
  39        3S          0.00000   0.02486   0.04163   0.03108
  40        4PX         0.00000  -0.00974  -0.01456  -0.00181   0.00174
  41        4PY         0.00023   0.00000   0.00000   0.00000   0.00000
  42        4PZ         0.00000   0.00108   0.00203  -0.00071  -0.00041
                          41        42
  41        4PY         0.00109
  42        4PZ         0.00000   0.00120
    Full Mulliken population analysis:
                           1         2         3         4         5
   1 1   C  1S          0.66246
   2        2S          0.49827   0.50104
   3        2PX         0.00000   0.00000   0.05210
   4        2PY         0.00000   0.00000   0.00000   0.05780
   5        2PZ         0.00000   0.00000   0.00000   0.00000   0.11949
   6        3S         -0.03426  -0.07469   0.00000   0.00000   0.00000
   7        3PX         0.00000   0.00000   0.04686   0.00000   0.00000
   8        3PY         0.00000   0.00000   0.00000   0.05378   0.00000
   9        3PZ         0.00000   0.00000   0.00000   0.00000   0.09628
  10        4S         -0.01669  -0.03259   0.00000   0.00000   0.00000
  11        4PX         0.00000   0.00000   0.00768   0.00000   0.00000
  12        4PY         0.00000   0.00000   0.00000   0.01353   0.00000
  13        4PZ         0.00000   0.00000   0.00000   0.00000   0.01363
  14        5D 0        0.00000   0.00000   0.00000   0.00000   0.00000
  15        5D+1        0.00000   0.00000   0.00000   0.00000   0.00000
  16        5D-1        0.00000   0.00000   0.00000   0.00000   0.00000
  17        5D+2        0.00000   0.00000   0.00000   0.00000   0.00000
  18        5D-2        0.00000   0.00000   0.00000   0.00000   0.00000
  19 2   N  1S          0.00000   0.00000   0.00000   0.00000  -0.00015
  20        2S          0.00000   0.00000   0.00000   0.00000  -0.00018
  21        2PX         0.00000   0.00000   0.00048   0.00000   0.00000
  22        2PY         0.00000   0.00000   0.00000   0.00069   0.00000
  23        2PZ        -0.00010  -0.00007   0.00000   0.00000   0.00680
  24        3S         -0.00033  -0.00039   0.00000   0.00000   0.01277
  25        3PX         0.00000   0.00000   0.00580   0.00000   0.00000
  26        3PY         0.00000   0.00000   0.00000   0.00808   0.00000
  27        3PZ        -0.00270  -0.00451   0.00000   0.00000   0.03561
  28        4S          0.00161   0.00390   0.00000   0.00000   0.00681
  29        4PX         0.00000   0.00000   0.00692   0.00000   0.00000
  30        4PY         0.00000   0.00000   0.00000   0.01176   0.00000
  31        4PZ        -0.00202  -0.00335   0.00000   0.00000   0.01039
  32        5D 0       -0.00054  -0.00082   0.00000   0.00000   0.00386
  33        5D+1        0.00000   0.00000   0.00120   0.00000   0.00000
  34        5D-1        0.00000   0.00000   0.00000   0.00138   0.00000
  35        5D+2        0.00000   0.00000   0.00000   0.00000   0.00000
  36        5D-2        0.00000   0.00000   0.00000   0.00000   0.00000
  37 3   H  1S         -0.00010  -0.00012   0.00329   0.00000  -0.00017
  38        2S         -0.00113  -0.00194   0.01239   0.00000  -0.00096
  39        3S          0.00008  -0.00002   0.00131   0.00000  -0.00097
  40        4PX        -0.00030  -0.00041   0.00174   0.00000   0.00036
  41        4PY         0.00000   0.00000   0.00000   0.00049   0.00000
  42        4PZ        -0.00008  -0.00013  -0.00029   0.00000   0.00024
                           6         7         8         9        10
   6        3S          0.53479
   7        3PX         0.00000   0.10658
   8        3PY         0.00000   0.00000   0.12643
   9        3PZ         0.00000   0.00000   0.00000   0.19662
  10        4S          0.37685   0.00000   0.00000   0.00000   0.70322
  11        4PX         0.00000   0.03249   0.00000   0.00000   0.00000
  12        4PY         0.00000   0.00000   0.05939   0.00000   0.00000
  13        4PZ         0.00000   0.00000   0.00000   0.05276   0.00000
  14        5D 0        0.00000   0.00000   0.00000   0.00000   0.00000
  15        5D+1        0.00000   0.00000   0.00000   0.00000   0.00000
  16        5D-1        0.00000   0.00000   0.00000   0.00000   0.00000
  17        5D+2        0.00000   0.00000   0.00000   0.00000   0.00000
  18        5D-2        0.00000   0.00000   0.00000   0.00000   0.00000
  19 2   N  1S         -0.00025   0.00000   0.00000  -0.00257   0.00227
  20        2S         -0.00030   0.00000   0.00000  -0.00425   0.00392
  21        2PX         0.00000   0.00508   0.00000   0.00000   0.00000
  22        2PY         0.00000   0.00000   0.00749   0.00000   0.00000
  23        2PZ         0.01083   0.00000   0.00000   0.02496  -0.00295
  24        3S          0.00101   0.00000   0.00000   0.04719  -0.05804
  25        3PX         0.00000   0.02711   0.00000   0.00000   0.00000
  26        3PY         0.00000   0.00000   0.03933   0.00000   0.00000
  27        3PZ         0.05139   0.00000   0.00000   0.07483  -0.01547
  28        4S         -0.07137   0.00000   0.00000   0.02208  -0.15288
  29        4PX         0.00000   0.03045   0.00000   0.00000   0.00000
  30        4PY         0.00000   0.00000   0.05424   0.00000   0.00000
  31        4PZ         0.03136   0.00000   0.00000   0.02298  -0.05481
  32        5D 0        0.00416   0.00000   0.00000   0.00318  -0.00027
  33        5D+1        0.00000   0.00354   0.00000   0.00000   0.00000
  34        5D-1        0.00000   0.00000   0.00424   0.00000   0.00000
  35        5D+2        0.00000   0.00000   0.00000   0.00000   0.00000
  36        5D-2        0.00000   0.00000   0.00000   0.00000   0.00000
  37 3   H  1S          0.00894   0.02247   0.00000  -0.00128   0.00777
  38        2S          0.02433   0.05306   0.00000  -0.00407   0.01805
  39        3S          0.00138   0.00686   0.00000  -0.00451   0.03873
  40        4PX         0.00359   0.00401   0.00000   0.00084  -0.00019
  41        4PY         0.00000   0.00000   0.00249   0.00000   0.00000
  42        4PZ         0.00171  -0.00080   0.00000   0.00147   0.00182
                          11        12        13        14        15
  11        4PX         0.02438
  12        4PY         0.00000   0.06533
  13        4PZ         0.00000   0.00000   0.04146
  14        5D 0        0.00000   0.00000   0.00000   0.00322
  15        5D+1        0.00000   0.00000   0.00000   0.00000   0.00311
  16        5D-1        0.00000   0.00000   0.00000   0.00000   0.00000
  17        5D+2        0.00000   0.00000   0.00000   0.00000   0.00000
  18        5D-2        0.00000   0.00000   0.00000   0.00000   0.00000
  19 2   N  1S          0.00000   0.00000  -0.00010  -0.00095   0.00000
  20        2S          0.00000   0.00000  -0.00045  -0.00147   0.00000
  21        2PX         0.00276   0.00000   0.00000   0.00000   0.00187
  22        2PY         0.00000   0.00618   0.00000   0.00000   0.00000
  23        2PZ         0.00000   0.00000   0.00113   0.00335   0.00000
  24        3S          0.00000   0.00000   0.00971   0.00939   0.00000
  25        3PX         0.01520   0.00000   0.00000   0.00000   0.00726
  26        3PY         0.00000   0.03353   0.00000   0.00000   0.00000
  27        3PZ         0.00000   0.00000   0.00313   0.00516   0.00000
  28        4S          0.00000   0.00000   0.01244   0.00258   0.00000
  29        4PX         0.02385   0.00000   0.00000   0.00000   0.00392
  30        4PY         0.00000   0.06359   0.00000   0.00000   0.00000
  31        4PZ         0.00000   0.00000  -0.00526  -0.00111   0.00000
  32        5D 0        0.00000   0.00000  -0.00026   0.00021   0.00000
  33        5D+1        0.00077   0.00000   0.00000   0.00000   0.00091
  34        5D-1        0.00000   0.00140   0.00000   0.00000   0.00000
  35        5D+2        0.00000   0.00000   0.00000   0.00000   0.00000
  36        5D-2        0.00000   0.00000   0.00000   0.00000   0.00000
  37 3   H  1S          0.01181   0.00000  -0.00148   0.00046   0.00208
  38        2S          0.03349   0.00000  -0.00370   0.00073   0.00260
  39        3S          0.00474   0.00000  -0.00406   0.00015   0.00008
  40        4PX         0.00015   0.00000   0.00002  -0.00001   0.00045
  41        4PY         0.00000   0.00213   0.00000   0.00000   0.00000
  42        4PZ        -0.00019   0.00000   0.00118   0.00020   0.00024
                          16        17        18        19        20
  16        5D-1        0.00402
  17        5D+2        0.00000   0.00051
  18        5D-2        0.00000   0.00000   0.00015
  19 2   N  1S          0.00000   0.00000   0.00000   0.65332
  20        2S          0.00000   0.00000   0.00000   0.50903   0.51537
  21        2PX         0.00000   0.00000   0.00000   0.00000   0.00000
  22        2PY         0.00284   0.00000   0.00000   0.00000   0.00000
  23        2PZ         0.00000   0.00000   0.00000   0.00000   0.00000
  24        3S          0.00000   0.00000   0.00000  -0.04339  -0.08748
  25        3PX         0.00000   0.00000   0.00000   0.00000   0.00000
  26        3PY         0.01080   0.00000   0.00000   0.00000   0.00000
  27        3PZ         0.00000   0.00000   0.00000   0.00000   0.00000
  28        4S          0.00000   0.00000   0.00000  -0.02195  -0.03849
  29        4PX         0.00000   0.00000   0.00000   0.00000   0.00000
  30        4PY         0.00681   0.00000   0.00000   0.00000   0.00000
  31        4PZ         0.00000   0.00000   0.00000   0.00000   0.00000
  32        5D 0        0.00000   0.00000   0.00000   0.00000   0.00000
  33        5D+1        0.00000   0.00000   0.00000   0.00000   0.00000
  34        5D-1        0.00112   0.00000   0.00000   0.00000   0.00000
  35        5D+2        0.00000   0.00003   0.00000   0.00000   0.00000
  36        5D-2        0.00000   0.00000   0.00001   0.00000   0.00000
  37 3   H  1S          0.00000   0.00150   0.00000   0.00000   0.00000
  38        2S          0.00000   0.00179   0.00000   0.00013   0.00024
  39        3S          0.00000   0.00010   0.00000  -0.00006  -0.00013
  40        4PX         0.00000   0.00014   0.00000  -0.00002  -0.00003
  41        4PY         0.00022   0.00000   0.00013   0.00000   0.00000
  42        4PZ         0.00000   0.00001   0.00000  -0.00002  -0.00004
                          21        22        23        24        25
  21        2PX         0.06123
  22        2PY         0.00000   0.10402
  23        2PZ         0.00000   0.00000   0.14583
  24        3S          0.00000   0.00000   0.00000   0.63882
  25        3PX         0.05683   0.00000   0.00000   0.00000   0.13726
  26        3PY         0.00000   0.09476   0.00000   0.00000   0.00000
  27        3PZ         0.00000   0.00000   0.12251   0.00000   0.00000
  28        4S          0.00000   0.00000   0.00000   0.44913   0.00000
  29        4PX         0.01372   0.00000   0.00000   0.00000   0.06293
  30        4PY         0.00000   0.02652   0.00000   0.00000   0.00000
  31        4PZ         0.00000   0.00000   0.03095   0.00000   0.00000
  32        5D 0        0.00000   0.00000   0.00000   0.00000   0.00000
  33        5D+1        0.00000   0.00000   0.00000   0.00000   0.00000
  34        5D-1        0.00000   0.00000   0.00000   0.00000   0.00000
  35        5D+2        0.00000   0.00000   0.00000   0.00000   0.00000
  36        5D-2        0.00000   0.00000   0.00000   0.00000   0.00000
  37 3   H  1S          0.00041   0.00000   0.00002  -0.00008   0.00713
  38        2S          0.00474   0.00000  -0.00016  -0.00572   0.02748
  39        3S          0.00061   0.00000  -0.00133   0.00257   0.00361
  40        4PX         0.00043   0.00000   0.00028   0.00064   0.00223
  41        4PY         0.00000   0.00014   0.00000   0.00000   0.00000
  42        4PZ         0.00026   0.00000   0.00001   0.00145   0.00154
                          26        27        28        29        30
  26        3PY         0.22454
  27        3PZ         0.00000   0.26787
  28        4S          0.00000   0.00000   0.61331
  29        4PX         0.00000   0.00000   0.00000   0.07259
  30        4PY         0.11934   0.00000   0.00000   0.00000   0.15367
  31        4PZ         0.00000   0.12865   0.00000   0.00000   0.00000
  32        5D 0        0.00000   0.00000   0.00000   0.00000   0.00000
  33        5D+1        0.00000   0.00000   0.00000   0.00000   0.00000
[...]
  18        5D-2        0.00000   0.00000   0.00000   0.00000   0.00000
  19 2   N  1S          0.00000   0.00000   0.00000   0.00000  -0.00016
  20        2S          0.00000   0.00000   0.00000   0.00000  -0.00019
  21        2PX         0.00000   0.00000   0.00051   0.00000   0.00002
  22        2PY         0.00000   0.00000   0.00000   0.00071   0.00000
  23        2PZ        -0.00011  -0.00007   0.00001   0.00000   0.00691
  24        3S         -0.00037  -0.00044   0.00003   0.00000   0.01285
  25        3PX         0.00002   0.00003   0.00601   0.00000   0.00013
  26        3PY         0.00000   0.00000   0.00000   0.00821   0.00000
  27        3PZ        -0.00280  -0.00469   0.00003   0.00000   0.03559
  28        4S          0.00136   0.00343   0.00002   0.00000   0.00646
  29        4PX         0.00003   0.00007   0.00741   0.00000   0.00010
  30        4PY         0.00000   0.00000   0.00000   0.01179   0.00000
  31        4PZ        -0.00227  -0.00383   0.00001   0.00000   0.01024
  32        5D 0       -0.00054  -0.00083   0.00001   0.00000   0.00386
  33        5D+1        0.00000   0.00000   0.00125   0.00000   0.00002
  34        5D-1        0.00000   0.00000   0.00000   0.00139   0.00000
  35        5D+2        0.00000   0.00000   0.00000   0.00000   0.00000
  36        5D-2        0.00000   0.00000   0.00000   0.00000   0.00000
  37 3   H  1S         -0.00013  -0.00016   0.00387   0.00000  -0.00024
  38        2S         -0.00144  -0.00250   0.01325   0.00000  -0.00091
  39        3S          0.00006  -0.00007   0.00141   0.00000  -0.00067
  40        4PX        -0.00038  -0.00053   0.00189   0.00000   0.00019
  41        4PY         0.00000   0.00000   0.00000   0.00049   0.00000
  42        4PZ        -0.00005  -0.00009  -0.00027   0.00000   0.00044
                           6         7         8         9        10
   6        3S          0.52123
   7        3PX         0.00000   0.11663
   8        3PY         0.00000   0.00000   0.12827
   9        3PZ         0.00000   0.00000   0.00000   0.19370
  10        4S          0.35036   0.00000   0.00000   0.00000   0.64763
  11        4PX         0.00000   0.03623   0.00000   0.00000   0.00000
  12        4PY         0.00000   0.00000   0.06105   0.00000   0.00000
  13        4PZ         0.00000   0.00000   0.00000   0.05127   0.00000
  14        5D 0        0.00000   0.00000   0.00000   0.00000   0.00000
  15        5D+1        0.00000   0.00000   0.00000   0.00000   0.00000
  16        5D-1        0.00000   0.00000   0.00000   0.00000   0.00000
  17        5D+2        0.00000   0.00000   0.00000   0.00000   0.00000
  18        5D-2        0.00000   0.00000   0.00000   0.00000   0.00000
  19 2   N  1S         -0.00028  -0.00001   0.00000  -0.00260   0.00215
  20        2S         -0.00036  -0.00001   0.00000  -0.00430   0.00370
  21        2PX        -0.00007   0.00524   0.00000   0.00008  -0.00008
  22        2PY         0.00000   0.00000   0.00761   0.00000   0.00000
  23        2PZ         0.01114   0.00004   0.00000   0.02482  -0.00290
  24        3S          0.00220   0.00016   0.00000   0.04726  -0.05405
  25        3PX        -0.00037   0.02793   0.00000   0.00031  -0.00046
  26        3PY         0.00000   0.00000   0.03975   0.00000   0.00000
  27        3PZ         0.05292   0.00012   0.00000   0.07379  -0.01499
  28        4S         -0.06506   0.00007   0.00000   0.02100  -0.13738
  29        4PX        -0.00068   0.03255   0.00000   0.00031  -0.00105
  30        4PY         0.00000   0.00000   0.05430   0.00000   0.00000
  31        4PZ         0.03575   0.00005   0.00000   0.02239  -0.05145
  32        5D 0        0.00422   0.00002   0.00000   0.00310  -0.00027
  33        5D+1       -0.00003   0.00368   0.00000   0.00003  -0.00002
  34        5D-1        0.00000   0.00000   0.00425   0.00000   0.00000
  35        5D+2        0.00000   0.00001   0.00000   0.00000   0.00000
  36        5D-2        0.00000   0.00000   0.00001   0.00000   0.00000
  37 3   H  1S          0.01108   0.02463   0.00000  -0.00155   0.01117
  38        2S          0.03107   0.05571   0.00000  -0.00378   0.02724
  39        3S          0.00212   0.00735   0.00000  -0.00310   0.03724
  40        4PX         0.00446   0.00419   0.00000   0.00039   0.00047
  41        4PY         0.00000   0.00000   0.00239   0.00000   0.00000
  42        4PZ         0.00113  -0.00073   0.00000   0.00213   0.00128
                          11        12        13        14        15
  11        4PX         0.02755
  12        4PY         0.00000   0.06804
  13        4PZ         0.00000   0.00000   0.04072
  14        5D 0        0.00000   0.00000   0.00000   0.00306
  15        5D+1        0.00000   0.00000   0.00000   0.00000   0.00298
  16        5D-1        0.00000   0.00000   0.00000   0.00000   0.00000
  17        5D+2        0.00000   0.00000   0.00000   0.00000   0.00000
  18        5D-2        0.00000   0.00000   0.00000   0.00000   0.00000
  19 2   N  1S         -0.00001   0.00000  -0.00014  -0.00097   0.00000
  20        2S         -0.00001   0.00000  -0.00053  -0.00148   0.00000
  21        2PX         0.00296   0.00000   0.00002  -0.00001   0.00186
  22        2PY         0.00000   0.00631   0.00000   0.00000   0.00000
  23        2PZ        -0.00001   0.00000   0.00102   0.00323  -0.00002
  24        3S          0.00018   0.00000   0.01073   0.00929   0.00000
  25        3PX         0.01632   0.00000   0.00011  -0.00002   0.00718
  26        3PY         0.00000   0.03418   0.00000   0.00000   0.00000
  27        3PZ        -0.00003   0.00000   0.00278   0.00491  -0.00004
  28        4S          0.00018   0.00000   0.01342   0.00248   0.00000
  29        4PX         0.02689   0.00000   0.00020   0.00000   0.00408
  30        4PY         0.00000   0.06440   0.00000   0.00000   0.00000
  31        4PZ        -0.00006   0.00000  -0.00508  -0.00108  -0.00001
  32        5D 0        0.00000   0.00000  -0.00024   0.00020   0.00000
  33        5D+1        0.00082   0.00000   0.00000   0.00000   0.00089
  34        5D-1        0.00000   0.00142   0.00000   0.00000   0.00000
  35        5D+2        0.00000   0.00000   0.00000   0.00000   0.00000
  36        5D-2        0.00000   0.00000   0.00000   0.00000   0.00000
  37 3   H  1S          0.01236   0.00000  -0.00128   0.00074   0.00141
  38        2S          0.03457   0.00000  -0.00295   0.00099   0.00170
  39        3S          0.00526   0.00000  -0.00265   0.00016   0.00005
  40        4PX         0.00017   0.00000  -0.00003   0.00000   0.00029
  41        4PY         0.00000   0.00199   0.00000   0.00000   0.00000
  42        4PZ        -0.00019   0.00000   0.00143   0.00017   0.00038
                          16        17        18        19        20
  16        5D-1        0.00385
  17        5D+2        0.00000   0.00057
  18        5D-2        0.00000   0.00000   0.00013
  19 2   N  1S          0.00000   0.00000   0.00000   0.65339
  20        2S          0.00000   0.00000   0.00000   0.50911   0.51549
  21        2PX         0.00000  -0.00001   0.00000   0.00000   0.00000
  22        2PY         0.00280   0.00000  -0.00001   0.00000   0.00000
  23        2PZ         0.00000   0.00000   0.00000   0.00000   0.00000
  24        3S          0.00000   0.00000   0.00000  -0.04343  -0.08758
  25        3PX         0.00000  -0.00002   0.00000   0.00000   0.00000
  26        3PY         0.01058   0.00000  -0.00002   0.00000   0.00000
  27        3PZ         0.00000   0.00000   0.00000   0.00000   0.00000
  28        4S          0.00000   0.00000   0.00000  -0.02180  -0.03818
  29        4PX         0.00000  -0.00001   0.00000   0.00000   0.00000
  30        4PY         0.00660   0.00000  -0.00002   0.00000   0.00000
  31        4PZ         0.00000   0.00000   0.00000   0.00000   0.00000
  32        5D 0        0.00000   0.00000   0.00000   0.00000   0.00000
  33        5D+1        0.00000   0.00000   0.00000   0.00000   0.00000
  34        5D-1        0.00109   0.00000   0.00000   0.00000   0.00000
  35        5D+2        0.00000   0.00002   0.00000   0.00000   0.00000
  36        5D-2        0.00000   0.00000   0.00001   0.00000   0.00000
  37 3   H  1S          0.00000   0.00177   0.00000   0.00000   0.00000
  38        2S          0.00000   0.00199   0.00000   0.00012   0.00023
  39        3S          0.00000   0.00012   0.00000  -0.00006  -0.00013
  40        4PX         0.00000   0.00016   0.00000  -0.00001  -0.00001
  41        4PY         0.00015   0.00000   0.00012   0.00000   0.00000
  42        4PZ         0.00000   0.00001   0.00000  -0.00001  -0.00002
                          21        22        23        24        25
  21        2PX         0.06065
  22        2PY         0.00000   0.10337
  23        2PZ         0.00000   0.00000   0.14701
  24        3S          0.00000   0.00000   0.00000   0.63967
  25        3PX         0.05623   0.00000   0.00000   0.00000   0.13566
  26        3PY         0.00000   0.09402   0.00000   0.00000   0.00000
  27        3PZ         0.00000   0.00000   0.12329   0.00000   0.00000
  28        4S          0.00000   0.00000   0.00000   0.44478   0.00000
  29        4PX         0.01431   0.00000   0.00000   0.00000   0.06556
  30        4PY         0.00000   0.02617   0.00000   0.00000   0.00000
  31        4PZ         0.00000   0.00000   0.03149   0.00000   0.00000
  32        5D 0        0.00000   0.00000   0.00000   0.00000   0.00000
  33        5D+1        0.00000   0.00000   0.00000   0.00000   0.00000
  34        5D-1        0.00000   0.00000   0.00000   0.00000   0.00000
  35        5D+2        0.00000   0.00000   0.00000   0.00000   0.00000
  36        5D-2        0.00000   0.00000   0.00000   0.00000   0.00000
  37 3   H  1S          0.00020   0.00000   0.00000  -0.00030   0.00450
  38        2S          0.00340   0.00000  -0.00028  -0.00564   0.02075
  39        3S          0.00046   0.00000  -0.00134   0.00243   0.00279
  40        4PX         0.00025   0.00000   0.00018   0.00027   0.00152
  41        4PY         0.00000   0.00008   0.00000   0.00000   0.00000
  42        4PZ         0.00021   0.00000   0.00005   0.00106   0.00151
                          26        27        28        29        30
  26        3PY         0.22245
  27        3PZ         0.00000   0.26909
  28        4S          0.00000   0.00000   0.59715
  29        4PX         0.00000   0.00000   0.00000   0.07962
  30        4PY         0.11759   0.00000   0.00000   0.00000   0.15059
  31        4PZ         0.00000   0.13064   0.00000   0.00000   0.00000
  32        5D 0        0.00000   0.00000   0.00000   0.00000   0.00000
  33        5D+1        0.00000   0.00000   0.00000   0.00000   0.00000
  34        5D-1        0.00000   0.00000   0.00000   0.00000   0.00000
  35        5D+2        0.00000   0.00000   0.00000   0.00000   0.00000
  36        5D-2        0.00000   0.00000   0.00000   0.00000   0.00000
  37 3   H  1S          0.00000   0.00004  -0.00343   0.00983   0.00000
  38        2S          0.00000  -0.00154  -0.01561   0.03037   0.00000
  39        3S          0.00000  -0.00723   0.01562   0.00363   0.00000
  40        4PX         0.00000   0.00112  -0.00044   0.00059   0.00000
  41        4PY         0.00087   0.00000   0.00000   0.00000   0.00203
  42        4PZ         0.00000   0.00023   0.00176   0.00168   0.00000
                          31        32        33        34        35
  31        4PZ         0.16091
  32        5D 0        0.00000   0.00258
  33        5D+1        0.00000   0.00000   0.00169
  34        5D-1        0.00000   0.00000   0.00000   0.00193
  35        5D+2        0.00000   0.00000   0.00000   0.00000   0.00011
  36        5D-2        0.00000   0.00000   0.00000   0.00000   0.00000
  37 3   H  1S         -0.00115   0.00000   0.00060   0.00000   0.00009
  38        2S         -0.00490  -0.00002   0.00164   0.00000   0.00024
  39        3S         -0.01621  -0.00002   0.00008   0.00000   0.00002
  40        4PX         0.00083   0.00005   0.00023   0.00000   0.00002
  41        4PY         0.00000   0.00000   0.00000   0.00008   0.00000
  42        4PZ        -0.00003  -0.00002   0.00010   0.00000   0.00003
                          36        37        38        39        40
  36        5D-2        0.00003
  37 3   H  1S          0.00000   0.06384
  38        2S          0.00000   0.06875   0.15096
  39        3S          0.00000   0.00981   0.03335   0.02944
  40        4PX         0.00000   0.00000   0.00000   0.00000   0.00157
  41        4PY         0.00001   0.00000   0.00000   0.00000   0.00000
  42        4PZ         0.00000   0.00000   0.00000   0.00000   0.00000
                          41        42
  41        4PY         0.00087
  42        4PZ         0.00000   0.00123
     Gross orbital populations:
                           1
   1 1   C  1S          1.10403
   2        2S          0.88433
   3        2PX         0.15256
   4        2PY         0.14976
   5        2PZ         0.30060
   6        3S          0.85472
   7        3PX         0.36522
   8        3PY         0.35220
   9        3PZ         0.52015
  10        4S          0.77271
  11        4PX         0.17174
  12        4PY         0.25131
  13        4PZ         0.12206
  14        5D 0        0.02167
  15        5D+1        0.02075
  16        5D-1        0.02508
  17        5D+2        0.00460
  18        5D-2        0.00021
  19 2   N  1S          1.09530
  20        2S          0.89572
  21        2PX         0.14625
  22        2PY         0.24106
  23        2PZ         0.34445
  24        3S          0.97911
  25        3PX         0.34568
  26        3PY         0.52761
  27        3PZ         0.66324
  28        4S          0.82581
  29        4PX         0.27550
  30        4PY         0.43345
  31        4PZ         0.30623
  32        5D 0        0.01209
  33        5D+1        0.01099
  34        5D-1        0.01016
  35        5D+2        0.00055
  36        5D-2        0.00007
  37 3   H  1S          0.21645
  38        2S          0.43673
  39        3S          0.11996
  40        4PX         0.01743
  41        4PY         0.00909
  42        4PZ         0.01341
          Condensed to atoms (all electrons):
               1          2          3
     1  C    5.311643   0.474091   0.287961
     2  N    0.474091   6.585783   0.053374
     3  H    0.287961   0.053374   0.471723
 Mulliken charges:
               1
     1  C   -0.073695
     2  N   -0.113248
     3  H    0.186943
 Sum of Mulliken charges =   0.00000
 Mulliken charges with hydrogens summed into heavy atoms:
               1
     1  C    0.113248
     2  N   -0.113248
 APT charges:
               1
     1  C   -0.215646
     2  N   -0.046422
     3  H    0.262068
 Sum of APT charges =   0.00000
 APT charges with hydrogens summed into heavy atoms:
               1
     1  C    0.046422
     2  N   -0.046422
 Electronic spatial extent (au):  <R**2>=             47.5176
 Charge=              0.0000 electrons
 Dipole moment (field-independent basis, Debye):
    X=              1.2741    Y=              0.0000    Z=             -0.2686  Tot=              1.3021
 Quadrupole moment (field-independent basis, Debye-Ang):
   XX=             -9.5829   YY=            -12.0202   ZZ=            -14.1137
   XY=              0.0000   XZ=             -0.4153   YZ=              0.0000
 Traceless Quadrupole moment (field-independent basis, Debye-Ang):
   XX=              2.3227   YY=             -0.1146   ZZ=             -2.2081
   XY=              0.0000   XZ=             -0.4153   YZ=              0.0000
 Octapole moment (field-independent basis, Debye-Ang**2):
  XXX=              1.3190  YYY=              0.0000  ZZZ=              3.2329  XYY=             -0.2284
  XXY=              0.0000  XXZ=              0.5631  XZZ=             -0.2740  YZZ=              0.0000
  YYZ=              0.8068  XYZ=              0.0000
 Hexadecapole moment (field-independent basis, Debye-Ang**3):
 XXXX=            -12.5826 YYYY=            -11.8384 ZZZZ=            -42.5510 XXXY=              0.0000
 XXXZ=              0.0696 YYYX=              0.0000 YYYZ=              0.0000 ZZZX=              0.9521
 ZZZY=              0.0000 XXYY=             -4.5744 XXZZ=             -8.9735 YYZZ=             -8.5701
 XXYZ=              0.0000 YYXZ=              0.2889 ZZXY=              0.0000
 N-N= 2.406683305370D+01 E-N=-2.659891159562D+02  KE= 9.307625581682D+01
 Orbital energies and kinetic energies (alpha):
                                 1                 2
   1         O               -14.383192         22.051413
   2         O               -10.231564         15.952406
   3         O                -0.987312          2.165866
   4         O                -0.536803          1.481991
   5         O                -0.449244          1.835312
   6         O                -0.391170          1.479473
   7         O                -0.347566          1.571668
   8         V                -0.078159          1.681244
   9         V                 0.001283          1.604729
  10         V                 0.041794          0.842288
  11         V                 0.217084          0.846516
  12         V                 0.308115          0.911547
  13         V                 0.395810          1.355183
  14         V                 0.408120          1.521894
  15         V                 0.527924          1.540520
  16         V                 0.553673          1.926129
  17         V                 0.633216          1.953586
  18         V                 0.641378          1.988432
  19         V                 0.738321          3.258572
  20         V                 1.009697          1.870835
  21         V                 1.023152          3.211160
  22         V                 1.212093          2.333741
  23         V                 1.361142          2.507360
  24         V                 1.434269          2.438524
  25         V                 1.612859          2.682272
  26         V                 1.748463          2.609213
  27         V                 1.892383          3.695189
  28         V                 2.001603          3.271807
  29         V                 2.103792          3.790825
  30         V                 2.246259          3.869627
  31         V                 2.353000          4.367885
  32         V                 2.439416          4.839879
  33         V                 2.659509          4.181948
  34         V                 2.743750          5.404674
  35         V                 2.820977          5.445039
  36         V                 2.978608          6.410566
  37         V                 3.229858          6.129387
  38         V                 3.723857          8.783687
  39         V                 3.792798          8.675527
  40         V                 4.319797          9.393483
  41         V                23.921293         60.475339
  42         V                35.542244         89.003968
 Total kinetic energy from orbitals= 9.307625581682D+01
  Exact polarizability:   0.000   0.000   0.000   0.000   0.000   0.000
 Approx polarizability:  20.349   0.000  13.726   1.029   0.000  37.706
 No NMR shielding tensors so no spin-rotation constants.
 Leave Link  601 at Thu Apr 14 12:48:06 2016, MaxMem=   104857600 cpu:         0.1
 (Enter /home/projets/algogen/g09.D01/g09/l9999.exe)

 This type of calculation cannot be archived.


 A DANDELION FROM A LOVER MEANS MORE THAN AN ORCHID FROM A FRIEND.
 Job cpu time:       0 days  0 hours  0 minutes 29.6 seconds.
 File lengths (MBytes):  RWF=      5 Int=      0 D2E=      0 Chk=      2 Scr=      1
 Normal termination of Gaussian 09 at Thu Apr 14 12:48:06 2016.
************
total 336
drwxrwxr-x 2 henon henon   4096 14 avril 12:48 .
drwxrwxr-x 3 henon henon   4096 14 avril 12:47 ..
-rw-r--r-- 1 henon henon    266 14 avril 12:47 forward.inp
-rw-rw-r-- 1 henon henon 329552 14 avril 12:48 forward.out
Run on 1 cores
romeo174
************
