 Entering Gaussian System, Link 0=g09
 Initial command:
 /apps/gaussian/g09/l1.exe /scratch_l/henon/n2_14474/Gau-14490.inp -scrdir=/scratch_l/henon/n2_14474/
 Entering Link 1 = /apps/gaussian/g09/l1.exe PID=     14491.
  
 Copyright (c) 1988,1990,1992,1993,1995,1998,2003,2009, Gaussian, Inc.
                  All Rights Reserved.
  
 This is part of the Gaussian(R) 09 program.  It is based on
 the Gaussian(R) 03 system (copyright 2003, Gaussian, Inc.),
 the Gaussian(R) 98 system (copyright 1998, Gaussian, Inc.),
 the Gaussian(R) 94 system (copyright 1995, Gaussian, Inc.),
 the Gaussian 92(TM) system (copyright 1992, Gaussian, Inc.),
 the Gaussian 90(TM) system (copyright 1990, Gaussian, Inc.),
 the Gaussian 88(TM) system (copyright 1988, Gaussian, Inc.),
 the Gaussian 86(TM) system (copyright 1986, Carnegie Mellon
 University), and the Gaussian 82(TM) system (copyright 1983,
 Carnegie Mellon University). Gaussian is a federally registered
 trademark of Gaussian, Inc.
  
 This software contains proprietary and confidential information,
 including trade secrets, belonging to Gaussian, Inc.
  
 This software is provided under written license and may be
 used, copied, transmitted, or stored only in accord with that
 written license.
  
 The following legend is applicable only to US Government
 contracts under FAR:
  
                    RESTRICTED RIGHTS LEGEND
  
 Use, reproduction and disclosure by the US Government is
 subject to restrictions as set forth in subparagraphs (a)
 and (c) of the Commercial Computer Software - Restricted
 Rights clause in FAR 52.227-19.
  
 Gaussian, Inc.
 340 Quinnipiac St., Bldg. 40, Wallingford CT 06492
  
  
 ---------------------------------------------------------------
 Warning -- This program may not be used in any manner that
 competes with the business of Gaussian, Inc. or will provide
 assistance to any competitor of Gaussian, Inc.  The licensee
 of this program is prohibited from giving any competitor of
 Gaussian, Inc. access to this program.  By using this program,
 the user acknowledges that Gaussian, Inc. is engaged in the
 business of creating and licensing software in the field of
 computational chemistry and represents and warrants to the
 licensee that it is not a competitor of Gaussian, Inc. and that
 it will not use this program in any manner prohibited above.
 ---------------------------------------------------------------
  

 Cite this work as:
 Gaussian 09, Revision A.02,
 M. J. Frisch, G. W. Trucks, H. B. Schlegel, G. E. Scuseria, 
 M. A. Robb, J. R. Cheeseman, G. Scalmani, V. Barone, B. Mennucci, 
 G. A. Petersson, H. Nakatsuji, M. Caricato, X. Li, H. P. Hratchian, 
 A. F. Izmaylov, J. Bloino, G. Zheng, J. L. Sonnenberg, M. Hada, 
 M. Ehara, K. Toyota, R. Fukuda, J. Hasegawa, M. Ishida, T. Nakajima, 
 Y. Honda, O. Kitao, H. Nakai, T. Vreven, J. A. Montgomery, Jr., 
 J. E. Peralta, F. Ogliaro, M. Bearpark, J. J. Heyd, E. Brothers, 
 K. N. Kudin, V. N. Staroverov, R. Kobayashi, J. Normand, 
 K. Raghavachari, A. Rendell, J. C. Burant, S. S. Iyengar, J. Tomasi, 
 M. Cossi, N. Rega, J. M. Millam, M. Klene, J. E. Knox, J. B. Cross, 
 V. Bakken, C. Adamo, J. Jaramillo, R. Gomperts, R. E. Stratmann, 
 O. Yazyev, A. J. Austin, R. Cammi, C. Pomelli, J. W. Ochterski, 
 R. L. Martin, K. Morokuma, V. G. Zakrzewski, G. A. Voth, 
 P. Salvador, J. J. Dannenberg, S. Dapprich, A. D. Daniels, 
 O. Farkas, J. B. Foresman, J. V. Ortiz, J. Cioslowski, 
 and D. J. Fox, Gaussian, Inc., Wallingford CT, 2009.
 
 ******************************************
 Gaussian 09:  AM64L-G09RevA.02 11-Jun-2009
                25-Apr-2014 
 ******************************************
 %NPROC=4
 Will use up to    4 processors via shared memory.
 %MEM=500MB
 ------------------------------------------------------
 #P M06 6-311G** FREQ OPT # GFINPUT IOP(6/7=3) POP=FULL
 ------------------------------------------------------
 1/14=-1,18=20,19=15,26=3,38=1/1,3;
 2/9=110,12=2,17=6,18=5,40=1/2;
 3/5=4,6=6,7=101,11=2,16=1,24=10,25=1,30=1,71=1,74=-54/1,2,3;
 4//1;
 5/5=2,38=5/2;
 6/7=3,28=1/1;
 7//1,2,3,16;
 1/14=-1,18=20,19=15/3(2);
 2/9=110/2;
 99//99;
 2/9=110/2;
 3/5=4,6=6,7=101,11=2,16=1,25=1,30=1,71=1,74=-54/1,2,3;
 4/5=5,16=3/1;
 5/5=2,38=5/2;
 7//1,2,3,16;
 1/14=-1,18=20,19=15/3(-5);
 2/9=110/2;
 6/7=3,19=2,28=1/1;
 99/9=1/99;
 Leave Link    1 at Fri Apr 25 16:31:41 2014, MaxMem=   65536000 cpu:       0.1
 (Enter /apps/gaussian/g09/l101.exe)
 ---------
 product 1
 ---------
 Symbolic Z-matrix:
 Charge =  0 Multiplicity = 1
 N
 N                    1    NN
       Variables:
  NN                    1.2                      
 
 NAtoms=      2 NQM=      2 NQMF=      0 NMic=      0 NMicF=      0 NTot=      2.
                    Isotopes and Nuclear Properties:
 (Nuclear quadrupole moments (NQMom) in fm**2, nuclear magnetic moments (NMagM)
  in nuclear magnetons)

  Atom         1           2
 IAtWgt=          14          14
 AtmWgt=  14.0030740  14.0030740
 NucSpn=           2           2
 AtZEff=   0.0000000   0.0000000
 NQMom=    2.0440000   2.0440000
 NMagM=    0.4037610   0.4037610
 Leave Link  101 at Fri Apr 25 16:31:41 2014, MaxMem=   65536000 cpu:       0.2
 (Enter /apps/gaussian/g09/l103.exe)

 GradGradGradGradGradGradGradGradGradGradGradGradGradGradGradGradGradGrad
 Berny optimization.
 Initialization pass.
                           ----------------------------
                           !    Initial Parameters    !
                           ! (Angstroms and Degrees)  !
 --------------------------                            --------------------------
 ! Name  Definition              Value          Derivative Info.                !
 --------------------------------------------------------------------------------
 ! R1    R(1,2)                  1.2            estimate D2E/DX2                !
 --------------------------------------------------------------------------------
 Trust Radius=3.00D-01 FncErr=1.00D-07 GrdErr=1.00D-06
 Number of steps in this run=  20 maximum allowed number of steps= 100.
 GradGradGradGradGradGradGradGradGradGradGradGradGradGradGradGradGradGrad

 Leave Link  103 at Fri Apr 25 16:31:41 2014, MaxMem=   65536000 cpu:       0.0
 (Enter /apps/gaussian/g09/l202.exe)
                          Input orientation:                          
 ---------------------------------------------------------------------
 Center     Atomic      Atomic             Coordinates (Angstroms)
 Number     Number       Type             X           Y           Z
 ---------------------------------------------------------------------
      1          7           0        0.000000    0.000000    0.000000
      2          7           0        0.000000    0.000000    1.200000
 ---------------------------------------------------------------------
 Stoichiometry    N2
 Framework group  D*H[C*(N.N)]
 Deg. of freedom     1
 Full point group                 D*H     NOp   8
 Largest Abelian subgroup         D2H     NOp   8
 Largest concise Abelian subgroup C2      NOp   2
                         Standard orientation:                         
 ---------------------------------------------------------------------
 Center     Atomic      Atomic             Coordinates (Angstroms)
 Number     Number       Type             X           Y           Z
 ---------------------------------------------------------------------
      1          7           0        0.000000    0.000000    0.600000
      2          7           0        0.000000    0.000000   -0.600000
 ---------------------------------------------------------------------
 Rotational constants (GHZ):      0.0000000     50.1257998     50.1257998
 Leave Link  202 at Fri Apr 25 16:31:41 2014, MaxMem=   65536000 cpu:       0.0
 (Enter /apps/gaussian/g09/l301.exe)
 Standard basis: 6-311G(d,p) (5D, 7F)
 Ernie: Thresh=  0.10000D-02 Tol=  0.10000D-05 Strict=F.
 AO basis set in the form of general basis input (Overlap normalization):
      1 0
 S   6 1.00       0.000000000000
      0.6293480000D+04  0.1969788147D-02
      0.9490440000D+03  0.1496128592D-01
      0.2187760000D+03  0.7350053084D-01
      0.6369160000D+02  0.2489367658D+00
      0.1882820000D+02  0.6024594331D+00
      0.2720230000D+01  0.2562017589D+00
 SP   3 1.00       0.000000000000
      0.3063310000D+02  0.1119060795D+00  0.3831191864D-01
      0.7026140000D+01  0.9216666549D+00  0.2374031155D+00
      0.2112050000D+01 -0.2569191826D-02  0.8175923978D+00
 SP   1 1.00       0.000000000000
      0.6840090000D+00  0.1000000000D+01  0.1000000000D+01
 SP   1 1.00       0.000000000000
      0.2008780000D+00  0.1000000000D+01  0.1000000000D+01
 D   1 1.00       0.000000000000
      0.9130000000D+00  0.1000000000D+01
 ****
      2 0
 S   6 1.00       0.000000000000
      0.6293480000D+04  0.1969788147D-02
      0.9490440000D+03  0.1496128592D-01
      0.2187760000D+03  0.7350053084D-01
      0.6369160000D+02  0.2489367658D+00
      0.1882820000D+02  0.6024594331D+00
      0.2720230000D+01  0.2562017589D+00
 SP   3 1.00       0.000000000000
      0.3063310000D+02  0.1119060795D+00  0.3831191864D-01
      0.7026140000D+01  0.9216666549D+00  0.2374031155D+00
      0.2112050000D+01 -0.2569191826D-02  0.8175923978D+00
 SP   1 1.00       0.000000000000
      0.6840090000D+00  0.1000000000D+01  0.1000000000D+01
 SP   1 1.00       0.000000000000
      0.2008780000D+00  0.1000000000D+01  0.1000000000D+01
 D   1 1.00       0.000000000000
      0.9130000000D+00  0.1000000000D+01
 ****

 There are     9 symmetry adapted basis functions of AG  symmetry.
 There are     1 symmetry adapted basis functions of B1G symmetry.
 There are     4 symmetry adapted basis functions of B2G symmetry.
 There are     4 symmetry adapted basis functions of B3G symmetry.
 There are     1 symmetry adapted basis functions of AU  symmetry.
 There are     9 symmetry adapted basis functions of B1U symmetry.
 There are     4 symmetry adapted basis functions of B2U symmetry.
 There are     4 symmetry adapted basis functions of B3U symmetry.
 Integral buffers will be    131072 words long.
 Raffenetti 2 integral format.
 Two-electron integral symmetry is turned on.
    36 basis functions,    64 primitive gaussians,    38 cartesian basis functions
     7 alpha electrons        7 beta electrons
       nuclear repulsion energy        21.6080693508 Hartrees.
 IExCor= 4235 DFT=T Ex+Corr=M06 ExCW=0 ScaHFX=  0.270000
 ScaDFX=  1.000000  1.000000  1.000000  1.000000 ScalE2=  1.000000  1.000000
 IRadAn=      0 IRanWt=     -1 IRanGd=            0 ICorTp=0
 NAtoms=    2 NActive=    2 NUniq=    1 SFac= 3.00D+00 NAtFMM=   80 NAOKFM=F Big=F
 Leave Link  301 at Fri Apr 25 16:31:41 2014, MaxMem=   65536000 cpu:       0.1
 (Enter /apps/gaussian/g09/l302.exe)
 NPDir=0 NMtPBC=     1 NCelOv=     1 NCel=       1 NClECP=     1 NCelD=      1
         NCelK=      1 NCelE2=     1 NClLst=     1 CellRange=     0.0.
 One-electron integrals computed using PRISM.
 One-electron integral symmetry used in STVInt
 NBasis=    36 RedAO= T  NBF=     9     1     4     4     1     9     4     4
 NBsUse=    36 1.00D-06 NBFU=     9     1     4     4     1     9     4     4
 Precomputing XC quadrature grid using
 IXCGrd= 2 IRadAn=           0 IRanWt=          -1 IRanGd=           0 AccXCQ= 1.00D-10.
 NRdTot=     120 NPtTot=       15216 NUsed=       16095 NTot=       16127
 NSgBfM=    38    38    38    38    38 NAtAll=     2     2.
 Leave Link  302 at Fri Apr 25 16:31:41 2014, MaxMem=   65536000 cpu:       0.8
 (Enter /apps/gaussian/g09/l303.exe)
 DipDrv:  MaxL=1.
 Leave Link  303 at Fri Apr 25 16:31:41 2014, MaxMem=   65536000 cpu:       0.1
 (Enter /apps/gaussian/g09/l401.exe)
 Harris functional with IExCor= 1009 diagonalized for initial guess.
 ExpMin= 2.01D-01 ExpMax= 6.29D+03 ExpMxC= 9.49D+02 IAcc=1 IRadAn=         1 AccDes= 0.00D+00
 HarFok:  IExCor= 1009 AccDes= 0.00D+00 IRadAn=         1 IDoV= 1
 ScaDFX=  1.000000  1.000000  1.000000  1.000000
 FoFCou: FMM=F IPFlag=           0 FMFlag=      100000 FMFlg1=           0
         NFxFlg=           0 DoJE=T BraDBF=F KetDBF=T FulRan=T
         Omega=  0.000000  0.000000  1.000000  0.000000  0.000000 ICntrl=     500 IOpCl=  0
         NMat0=    1 NMatS0=    1 NMatT0=    0 NMatD0=    1 NMtDS0=    0 NMtDT0=    0
         I1Cent=           4 NGrid=           0.
 Petite list used in FoFCou.
 Harris En= -109.418186495784    
 Initial guess orbital symmetries:
       Occupied  (SGG) (SGU) (SGG) (SGU) (PIU) (PIU) (SGG)
       Virtual   (PIG) (PIG) (SGU) (PIU) (PIU) (SGG) (SGG) (SGU)
                 (PIG) (PIG) (SGU) (PIU) (PIU) (DLTG) (DLTG) (DLTU)
                 (DLTU) (SGG) (PIG) (PIG) (SGU) (PIU) (PIU) (PIG)
                 (PIG) (SGG) (SGU) (SGG) (SGU)
 The electronic state of the initial guess is 1-SGG.
 Leave Link  401 at Fri Apr 25 16:31:41 2014, MaxMem=   65536000 cpu:       0.5
 (Enter /apps/gaussian/g09/l502.exe)
 Closed shell SCF:
 Requested convergence on RMS density matrix=1.00D-08 within 128 cycles.
 Requested convergence on MAX density matrix=1.00D-06.
 Requested convergence on             energy=1.00D-06.
 No special actions if energy rises.
 Using DIIS extrapolation, IDIIS=  1040.
 Integral symmetry usage will be decided dynamically.
        16064 words used for storage of precomputed grid.
 Keep R1 ints in memory in canonical form, NReq=1173875.
 IEnd=       39154 IEndB=       39154 NGot=    65536000 MDV=    65240030
 LenX=    65240030 LenY=    65238145
 Symmetry not used in FoFDir.
 MinBra= 0 MaxBra= 2 Meth= 1.
 IRaf=       0 NMat=   1 IRICut=       1 DoRegI=T DoRafI=F ISym2E= 0 JSym2E=0.
 Integral accuracy reduced to 1.0D-05 until final iterations.

 Cycle   1  Pass 0  IDiag  1:
 E= -109.460843941853    
 DIIS: error= 1.01D-02 at cycle   1 NSaved=   1.
 NSaved= 1 IEnMin= 1 EnMin= -109.460843941853     IErMin= 1 ErrMin= 1.01D-02
 ErrMax= 1.01D-02 EMaxC= 1.00D-01 BMatC= 3.17D-03 BMatP= 3.17D-03
 IDIUse=3 WtCom= 8.99D-01 WtEn= 1.01D-01
 Coeff-Com:  0.100D+01
 Coeff-En:   0.100D+01
 Coeff:      0.100D+01
 Gap=     0.372 Goal=   None    Shift=    0.000
 GapD=    0.372 DampG=1.000 DampE=0.500 DampFc=0.5000 IDamp=-1.
 Damping current iteration by 5.00D-01
 RMSDP=1.10D-03 MaxDP=1.29D-02              OVMax= 1.20D-02

 Cycle   2  Pass 0  IDiag  1:
 E= -109.461783627487     Delta-E=       -0.000939685634 Rises=F Damp=T
 DIIS: error= 5.32D-03 at cycle   2 NSaved=   2.
 NSaved= 2 IEnMin= 2 EnMin= -109.461783627487     IErMin= 2 ErrMin= 5.32D-03
 ErrMax= 5.32D-03 EMaxC= 1.00D-01 BMatC= 7.13D-04 BMatP= 3.17D-03
 IDIUse=3 WtCom= 9.47D-01 WtEn= 5.32D-02
 Coeff-Com: -0.799D+00 0.180D+01
 Coeff-En:   0.000D+00 0.100D+01
 Coeff:     -0.757D+00 0.176D+01
 Gap=     0.374 Goal=   None    Shift=    0.000
 RMSDP=4.07D-04 MaxDP=4.81D-03 DE=-9.40D-04 OVMax= 4.15D-03

 Cycle   3  Pass 0  IDiag  1:
 E= -109.462673414366     Delta-E=       -0.000889786880 Rises=F Damp=F
 DIIS: error= 9.50D-04 at cycle   3 NSaved=   3.
 NSaved= 3 IEnMin= 3 EnMin= -109.462673414366     IErMin= 3 ErrMin= 9.50D-04
 ErrMax= 9.50D-04 EMaxC= 1.00D-01 BMatC= 1.81D-05 BMatP= 7.13D-04
 IDIUse=3 WtCom= 9.90D-01 WtEn= 9.50D-03
 Coeff-Com: -0.242D+00 0.500D+00 0.742D+00
 Coeff-En:   0.000D+00 0.000D+00 0.100D+01
 Coeff:     -0.240D+00 0.495D+00 0.745D+00
 Gap=     0.373 Goal=   None    Shift=    0.000
 RMSDP=9.92D-05 MaxDP=1.32D-03 DE=-8.90D-04 OVMax= 1.08D-03

 Cycle   4  Pass 0  IDiag  1:
 E= -109.462687072001     Delta-E=       -0.000013657634 Rises=F Damp=F
 DIIS: error= 1.15D-04 at cycle   4 NSaved=   4.
 NSaved= 4 IEnMin= 4 EnMin= -109.462687072001     IErMin= 4 ErrMin= 1.15D-04
 ErrMax= 1.15D-04 EMaxC= 1.00D-01 BMatC= 3.90D-07 BMatP= 1.81D-05
 IDIUse=3 WtCom= 9.99D-01 WtEn= 1.15D-03
 Coeff-Com: -0.366D-01 0.696D-01 0.163D+00 0.804D+00
 Coeff-En:   0.000D+00 0.000D+00 0.000D+00 0.100D+01
 Coeff:     -0.365D-01 0.695D-01 0.163D+00 0.804D+00
 Gap=     0.373 Goal=   None    Shift=    0.000
 RMSDP=1.28D-05 MaxDP=1.59D-04 DE=-1.37D-05 OVMax= 1.54D-04

 Cycle   5  Pass 0  IDiag  1:
 E= -109.462687351279     Delta-E=       -0.000000279278 Rises=F Damp=F
 DIIS: error= 1.84D-05 at cycle   5 NSaved=   5.
 NSaved= 5 IEnMin= 5 EnMin= -109.462687351279     IErMin= 5 ErrMin= 1.84D-05
 ErrMax= 1.84D-05 EMaxC= 1.00D-01 BMatC= 7.26D-09 BMatP= 3.90D-07
 IDIUse=1 WtCom= 1.00D+00 WtEn= 0.00D+00
 Coeff-Com:  0.273D-02-0.606D-02-0.811D-02 0.104D+00 0.908D+00
 Coeff:      0.273D-02-0.606D-02-0.811D-02 0.104D+00 0.908D+00
 Gap=     0.373 Goal=   None    Shift=    0.000
 RMSDP=1.86D-06 MaxDP=1.31D-05 DE=-2.79D-07 OVMax= 2.72D-05

 Initial convergence to 1.0D-05 achieved.  Increase integral accuracy.
 Cycle   6  Pass 1  IDiag  1:
 E= -109.462690448351     Delta-E=       -0.000003097072 Rises=F Damp=F
 DIIS: error= 1.02D-04 at cycle   1 NSaved=   1.
 NSaved= 1 IEnMin= 1 EnMin= -109.462690448351     IErMin= 1 ErrMin= 1.02D-04
 ErrMax= 1.02D-04 EMaxC= 1.00D-01 BMatC= 2.41D-07 BMatP= 2.41D-07
 IDIUse=3 WtCom= 9.99D-01 WtEn= 1.02D-03
 Coeff-Com:  0.100D+01
 Coeff-En:   0.100D+01
 Coeff:      0.100D+01
 Gap=     0.373 Goal=   None    Shift=    0.000
 RMSDP=1.86D-06 MaxDP=1.31D-05 DE=-3.10D-06 OVMax= 1.33D-04

 Cycle   7  Pass 1  IDiag  1:
 E= -109.462690565429     Delta-E=       -0.000000117079 Rises=F Damp=F
 DIIS: error= 1.46D-05 at cycle   2 NSaved=   2.
 NSaved= 2 IEnMin= 2 EnMin= -109.462690565429     IErMin= 2 ErrMin= 1.46D-05
 ErrMax= 1.46D-05 EMaxC= 1.00D-01 BMatC= 7.83D-09 BMatP= 2.41D-07
 IDIUse=1 WtCom= 1.00D+00 WtEn= 0.00D+00
 Coeff-Com:  0.109D-01 0.989D+00
 Coeff:      0.109D-01 0.989D+00
 Gap=     0.373 Goal=   None    Shift=    0.000
 RMSDP=1.82D-06 MaxDP=1.72D-05 DE=-1.17D-07 OVMax= 2.75D-05

 Cycle   8  Pass 1  IDiag  1:
 E= -109.462690568819     Delta-E=       -0.000000003390 Rises=F Damp=F
 DIIS: error= 7.84D-06 at cycle   3 NSaved=   3.
 NSaved= 3 IEnMin= 3 EnMin= -109.462690568819     IErMin= 3 ErrMin= 7.84D-06
 ErrMax= 7.84D-06 EMaxC= 1.00D-01 BMatC= 1.67D-09 BMatP= 7.83D-09
 IDIUse=1 WtCom= 1.00D+00 WtEn= 0.00D+00
 Coeff-Com: -0.163D-01 0.313D+00 0.703D+00
 Coeff:     -0.163D-01 0.313D+00 0.703D+00
 Gap=     0.373 Goal=   None    Shift=    0.000
 RMSDP=8.56D-07 MaxDP=1.14D-05 DE=-3.39D-09 OVMax= 1.07D-05

 Cycle   9  Pass 1  IDiag  1:
 E= -109.462690570163     Delta-E=       -0.000000001343 Rises=F Damp=F
 DIIS: error= 8.89D-07 at cycle   4 NSaved=   4.
 NSaved= 4 IEnMin= 4 EnMin= -109.462690570163     IErMin= 4 ErrMin= 8.89D-07
 ErrMax= 8.89D-07 EMaxC= 1.00D-01 BMatC= 1.76D-11 BMatP= 1.67D-09
 IDIUse=1 WtCom= 1.00D+00 WtEn= 0.00D+00
 Coeff-Com: -0.165D-02 0.284D-01 0.133D+00 0.840D+00
 Coeff:     -0.165D-02 0.284D-01 0.133D+00 0.840D+00
 Gap=     0.373 Goal=   None    Shift=    0.000
 RMSDP=1.24D-07 MaxDP=2.00D-06 DE=-1.34D-09 OVMax= 1.21D-06

 Cycle  10  Pass 1  IDiag  1:
 E= -109.462690570177     Delta-E=       -0.000000000015 Rises=F Damp=F
 DIIS: error= 9.83D-08 at cycle   5 NSaved=   5.
 NSaved= 5 IEnMin= 5 EnMin= -109.462690570177     IErMin= 5 ErrMin= 9.83D-08
 ErrMax= 9.83D-08 EMaxC= 1.00D-01 BMatC= 3.04D-13 BMatP= 1.76D-11
 IDIUse=1 WtCom= 1.00D+00 WtEn= 0.00D+00
 Coeff-Com: -0.107D-03-0.433D-02 0.767D-02 0.158D+00 0.839D+00
 Coeff:     -0.107D-03-0.433D-02 0.767D-02 0.158D+00 0.839D+00
 Gap=     0.373 Goal=   None    Shift=    0.000
 RMSDP=9.77D-09 MaxDP=1.57D-07 DE=-1.47D-11 OVMax= 9.62D-08

 SCF Done:  E(RM06) =  -109.462690570     A.U. after   10 cycles
             Convg  =    0.9769D-08             -V/T =  2.0062
 KE= 1.087892248514D+02 PE=-2.995045804907D+02 EE= 5.964459571842D+01
 Leave Link  502 at Fri Apr 25 16:31:42 2014, MaxMem=   65536000 cpu:       0.6
 (Enter /apps/gaussian/g09/l601.exe)
 Copying SCF densities to generalized density rwf, IOpCl= 0 IROHF=0.

 **********************************************************************

            Population analysis using the SCF density.

 **********************************************************************

 Orbital symmetries:
       Occupied  (SGG) (SGU) (SGG) (SGU) (PIU) (PIU) (SGG)
       Virtual   (PIG) (PIG) (SGU) (PIU) (PIU) (SGG) (SGG) (PIG)
                 (PIG) (SGU) (SGU) (PIU) (PIU) (DLTG) (DLTG) (DLTU)
                 (DLTU) (SGG) (PIG) (PIG) (SGU) (PIU) (PIU) (PIG)
                 (PIG) (SGG) (SGU) (SGG) (SGU)
 The electronic state is 1-SGG.
 Alpha  occ. eigenvalues --  -14.51337 -14.51263  -1.08051  -0.59688  -0.45557
 Alpha  occ. eigenvalues --   -0.45557  -0.43273
 Alpha virt. eigenvalues --   -0.05943  -0.05943   0.33930   0.52014   0.52014
 Alpha virt. eigenvalues --    0.53307   0.61362   0.64545   0.64545   0.65860
 Alpha virt. eigenvalues --    1.01700   1.62946   1.62946   1.72683   1.72684
 Alpha virt. eigenvalues --    2.11440   2.11442   2.35562   2.69945   2.69945
 Alpha virt. eigenvalues --    2.91143   3.52728   3.52728   3.83627   3.83627
 Alpha virt. eigenvalues --    3.86799   4.50388  34.91610  35.67947
     Molecular Orbital Coefficients:
                           1         2         3         4         5
                       (SGG)--O  (SGU)--O  (SGG)--O  (SGU)--O  (PIU)--O
     Eigenvalues --   -14.51337 -14.51263  -1.08051  -0.59688  -0.45557
   1 1   N  1S          0.39420   0.39428  -0.08923  -0.08808   0.00000
   2        2S          0.32938   0.32880  -0.13832  -0.13985   0.00000
   3        2PX         0.00000   0.00000   0.00000   0.00000   0.00000
   4        2PY         0.00000   0.00000   0.00000   0.00000   0.20410
   5        2PZ        -0.00132  -0.00016  -0.09574   0.08467   0.00000
   6        3S          0.00950   0.01190   0.39588   0.41592   0.00000
   7        3PX         0.00000   0.00000   0.00000   0.00000   0.00000
   8        3PY         0.00000   0.00000   0.00000   0.00000   0.30975
   9        3PZ         0.00037  -0.00443  -0.13108   0.11510   0.00000
  10        4S         -0.00279  -0.00666   0.18351   0.46076   0.00000
  11        4PX         0.00000   0.00000   0.00000   0.00000   0.00000
  12        4PY         0.00000   0.00000   0.00000   0.00000   0.23390
  13        4PZ         0.00029   0.00270  -0.03344   0.04981   0.00000
  14        5D 0       -0.00038   0.00257   0.01791  -0.01199   0.00000
  15        5D+1        0.00000   0.00000   0.00000   0.00000   0.00000
  16        5D-1        0.00000   0.00000   0.00000   0.00000  -0.03790
  17        5D+2       -0.00000  -0.00000   0.00000  -0.00000   0.00000
  18        5D-2        0.00000   0.00000   0.00000   0.00000   0.00000
  19 2   N  1S          0.39420  -0.39428  -0.08923   0.08808   0.00000
  20        2S          0.32938  -0.32880  -0.13832   0.13985   0.00000
  21        2PX         0.00000   0.00000   0.00000   0.00000   0.00000
  22        2PY         0.00000   0.00000   0.00000   0.00000   0.20410
  23        2PZ         0.00132  -0.00016   0.09574   0.08467   0.00000
  24        3S          0.00950  -0.01190   0.39588  -0.41592   0.00000
  25        3PX         0.00000   0.00000   0.00000   0.00000   0.00000
  26        3PY         0.00000   0.00000   0.00000   0.00000   0.30975
  27        3PZ        -0.00037  -0.00443   0.13108   0.11510   0.00000
  28        4S         -0.00279   0.00666   0.18351  -0.46076   0.00000
  29        4PX         0.00000   0.00000   0.00000   0.00000   0.00000
  30        4PY         0.00000   0.00000   0.00000   0.00000   0.23390
  31        4PZ        -0.00029   0.00270   0.03344   0.04981   0.00000
  32        5D 0       -0.00038  -0.00257   0.01791   0.01199   0.00000
  33        5D+1        0.00000   0.00000   0.00000   0.00000   0.00000
  34        5D-1        0.00000   0.00000   0.00000   0.00000   0.03790
  35        5D+2       -0.00000   0.00000   0.00000   0.00000   0.00000
  36        5D-2        0.00000   0.00000   0.00000   0.00000   0.00000
                           6         7         8         9        10
                       (PIU)--O  (SGG)--O  (PIG)--V  (PIG)--V  (SGU)--V
     Eigenvalues --    -0.45557  -0.43273  -0.05943  -0.05943   0.33930
   1 1   N  1S          0.00000  -0.02981   0.00000   0.00000  -0.05889
   2        2S          0.00000  -0.04731   0.00000   0.00000  -0.09737
   3        2PX         0.20410   0.00000   0.00000   0.23328   0.00000
   4        2PY         0.00000   0.00000   0.23328   0.00000   0.00000
   5        2PZ         0.00000   0.21780   0.00000   0.00000  -0.12918
   6        3S          0.00000   0.12091   0.00000   0.00000   0.29791
   7        3PX         0.30975   0.00000   0.00000   0.33700   0.00000
   8        3PY         0.00000   0.00000   0.33700   0.00000   0.00000
   9        3PZ         0.00000   0.30476   0.00000   0.00000  -0.12222
  10        4S          0.00000   0.29465   0.00000   0.00000   2.79623
  11        4PX         0.23390   0.00000   0.00000   0.50939   0.00000
  12        4PY         0.00000   0.00000   0.50939   0.00000   0.00000
  13        4PZ         0.00000   0.20547   0.00000   0.00000  -2.07907
  14        5D 0        0.00000  -0.02214   0.00000   0.00000  -0.02316
  15        5D+1       -0.03790   0.00000   0.00000   0.01117   0.00000
  16        5D-1        0.00000   0.00000   0.01117   0.00000   0.00000
  17        5D+2        0.00000   0.00000   0.00000   0.00000  -0.00000
  18        5D-2        0.00000   0.00000   0.00000   0.00000   0.00000
  19 2   N  1S          0.00000  -0.02981   0.00000   0.00000   0.05889
  20        2S          0.00000  -0.04731   0.00000   0.00000   0.09737
  21        2PX         0.20410   0.00000   0.00000  -0.23328   0.00000
  22        2PY         0.00000   0.00000  -0.23328   0.00000   0.00000
  23        2PZ         0.00000  -0.21780   0.00000   0.00000  -0.12918
  24        3S          0.00000   0.12091   0.00000   0.00000  -0.29791
  25        3PX         0.30975   0.00000   0.00000  -0.33700   0.00000
  26        3PY         0.00000   0.00000  -0.33700   0.00000   0.00000
  27        3PZ         0.00000  -0.30476   0.00000   0.00000  -0.12222
  28        4S          0.00000   0.29465   0.00000   0.00000  -2.79623
  29        4PX         0.23390   0.00000   0.00000  -0.50939   0.00000
  30        4PY         0.00000   0.00000  -0.50939   0.00000   0.00000
  31        4PZ         0.00000  -0.20547   0.00000   0.00000  -2.07907
  32        5D 0        0.00000  -0.02214   0.00000   0.00000   0.02316
  33        5D+1        0.03790   0.00000   0.00000   0.01117   0.00000
  34        5D-1        0.00000   0.00000   0.01117   0.00000   0.00000
  35        5D+2        0.00000   0.00000   0.00000   0.00000   0.00000
  36        5D-2        0.00000   0.00000   0.00000   0.00000   0.00000
                          11        12        13        14        15
                       (PIU)--V  (PIU)--V  (SGG)--V  (SGG)--V  (PIG)--V
     Eigenvalues --     0.52014   0.52014   0.53307   0.61362   0.64545
   1 1   N  1S          0.00000   0.00000  -0.00566  -0.08362   0.00000
   2        2S          0.00000   0.00000  -0.01552  -0.16292   0.00000
   3        2PX         0.00000  -0.15593   0.00000   0.00000   0.00000
   4        2PY        -0.15593   0.00000   0.00000   0.00000  -0.17960
   5        2PZ         0.00000   0.00000  -0.10576   0.06649   0.00000
   6        3S          0.00000   0.00000   0.24967   1.11587   0.00000
   7        3PX         0.00000  -0.57867   0.00000   0.00000   0.00000
   8        3PY        -0.57867   0.00000   0.00000   0.00000  -0.60032
   9        3PZ         0.00000   0.00000  -0.46778   0.14534   0.00000
  10        4S          0.00000   0.00000   0.07663  -0.92683   0.00000
  11        4PX         0.00000   0.69277   0.00000   0.00000   0.00000
  12        4PY         0.69277   0.00000   0.00000   0.00000   1.25545
  13        4PZ         0.00000   0.00000   1.01587  -0.09872   0.00000
  14        5D 0        0.00000   0.00000   0.03776   0.04381   0.00000
  15        5D+1        0.00000   0.05286   0.00000   0.00000   0.00000
  16        5D-1        0.05286   0.00000   0.00000   0.00000  -0.00368
  17        5D+2        0.00000   0.00000  -0.00000  -0.00000   0.00000
  18        5D-2        0.00000   0.00000   0.00000   0.00000   0.00000
  19 2   N  1S          0.00000   0.00000  -0.00566  -0.08362   0.00000
  20        2S          0.00000   0.00000  -0.01552  -0.16292   0.00000
  21        2PX         0.00000  -0.15593   0.00000   0.00000   0.00000
  22        2PY        -0.15593   0.00000   0.00000   0.00000   0.17960
  23        2PZ         0.00000   0.00000   0.10576  -0.06649   0.00000
  24        3S          0.00000   0.00000   0.24967   1.11587   0.00000
  25        3PX         0.00000  -0.57867   0.00000   0.00000   0.00000
  26        3PY        -0.57867   0.00000   0.00000   0.00000   0.60032
  27        3PZ         0.00000   0.00000   0.46778  -0.14534   0.00000
  28        4S          0.00000   0.00000   0.07663  -0.92683   0.00000
  29        4PX         0.00000   0.69277   0.00000   0.00000   0.00000
  30        4PY         0.69277   0.00000   0.00000   0.00000  -1.25545
  31        4PZ         0.00000   0.00000  -1.01587   0.09872   0.00000
  32        5D 0        0.00000   0.00000   0.03776   0.04381   0.00000
  33        5D+1        0.00000  -0.05286   0.00000   0.00000   0.00000
  34        5D-1       -0.05286   0.00000   0.00000   0.00000  -0.00368
  35        5D+2        0.00000   0.00000  -0.00000  -0.00000   0.00000
  36        5D-2        0.00000   0.00000   0.00000   0.00000   0.00000
                          16        17        18        19        20
                       (PIG)--V  (SGU)--V  (SGU)--V  (PIU)--V  (PIU)--V
     Eigenvalues --     0.64545   0.65860   1.01700   1.62946   1.62946
   1 1   N  1S          0.00000  -0.00238   0.08377   0.00000   0.00000
   2        2S          0.00000  -0.00700   0.16424   0.00000   0.00000
   3        2PX        -0.17960   0.00000   0.00000   0.00000   0.09995
   4        2PY         0.00000   0.00000   0.00000   0.09995   0.00000
   5        2PZ         0.00000   0.27174   0.13748   0.00000   0.00000
   6        3S          0.00000   0.16627  -1.37380   0.00000   0.00000
   7        3PX        -0.60032   0.00000   0.00000   0.00000   0.11220
   8        3PY         0.00000   0.00000   0.00000   0.11220   0.00000
   9        3PZ         0.00000   0.74073  -0.00626   0.00000   0.00000
  10        4S          0.00000  -0.08851   5.61917   0.00000   0.00000
  11        4PX         1.25545   0.00000   0.00000   0.00000  -0.02420
  12        4PY         0.00000   0.00000   0.00000  -0.02420   0.00000
  13        4PZ         0.00000  -0.65218  -2.67626   0.00000   0.00000
  14        5D 0        0.00000   0.03199   0.14417   0.00000   0.00000
  15        5D+1       -0.00368   0.00000   0.00000   0.00000   0.61008
  16        5D-1        0.00000   0.00000   0.00000   0.61008   0.00000
  17        5D+2        0.00000   0.00000   0.00000   0.00000   0.00000
  18        5D-2        0.00000   0.00000   0.00000   0.00000   0.00000
  19 2   N  1S          0.00000   0.00238  -0.08377   0.00000   0.00000
  20        2S          0.00000   0.00700  -0.16424   0.00000   0.00000
  21        2PX         0.17960   0.00000   0.00000   0.00000   0.09995
  22        2PY         0.00000   0.00000   0.00000   0.09995   0.00000
  23        2PZ         0.00000   0.27174   0.13748   0.00000   0.00000
  24        3S          0.00000  -0.16627   1.37380   0.00000   0.00000
  25        3PX         0.60032   0.00000   0.00000   0.00000   0.11220
  26        3PY         0.00000   0.00000   0.00000   0.11220   0.00000
  27        3PZ         0.00000   0.74073  -0.00626   0.00000   0.00000
  28        4S          0.00000   0.08851  -5.61917   0.00000   0.00000
  29        4PX        -1.25545   0.00000   0.00000   0.00000  -0.02420
  30        4PY         0.00000   0.00000   0.00000  -0.02420   0.00000
  31        4PZ         0.00000  -0.65218  -2.67626   0.00000   0.00000
  32        5D 0        0.00000  -0.03199  -0.14417   0.00000   0.00000
  33        5D+1       -0.00368   0.00000   0.00000   0.00000  -0.61008
  34        5D-1        0.00000   0.00000   0.00000  -0.61008   0.00000
  35        5D+2        0.00000  -0.00000  -0.00000   0.00000   0.00000
  36        5D-2        0.00000   0.00000   0.00000   0.00000   0.00000
                          21        22        23        24        25
                       (DLTG)--  (DLTG)--  (DLTU)--  (DLTU)--  (SGG)--V
     Eigenvalues --     1.72683   1.72684   2.11440   2.11442   2.35562
   1 1   N  1S          0.00000  -0.00000   0.00000   0.00000   0.02119
   2        2S          0.00000  -0.00000   0.00000   0.00000   0.05283
   3        2PX         0.00000   0.00000   0.00000   0.00000   0.00000
   4        2PY         0.00000   0.00000   0.00000   0.00000   0.00000
   5        2PZ         0.00000   0.00000   0.00000  -0.00000  -0.08764
   6        3S          0.00000   0.00000   0.00000  -0.00000  -0.48892
   7        3PX         0.00000   0.00000   0.00000   0.00000   0.00000
   8        3PY         0.00000   0.00000   0.00000   0.00000   0.00000
   9        3PZ         0.00000   0.00000   0.00000   0.00000   0.43125
  10        4S          0.00000  -0.00000   0.00000  -0.00000   0.18252
  11        4PX         0.00000   0.00000   0.00000   0.00000   0.00000
  12        4PY         0.00000   0.00000   0.00000   0.00000   0.00000
  13        4PZ         0.00000  -0.00000   0.00000   0.00000  -0.48206
  14        5D 0        0.00000   0.00000   0.00000  -0.00000   0.72270
  15        5D+1        0.00000   0.00000   0.00000   0.00000   0.00000
  16        5D-1        0.00000   0.00000   0.00000   0.00000   0.00000
  17        5D+2        0.00000   0.67555   0.00000   0.74354  -0.00000
  18        5D-2        0.67555   0.00000   0.74354   0.00000   0.00000
  19 2   N  1S          0.00000  -0.00000   0.00000  -0.00000   0.02119
  20        2S          0.00000  -0.00000   0.00000  -0.00000   0.05283
  21        2PX         0.00000   0.00000   0.00000   0.00000   0.00000
  22        2PY         0.00000   0.00000   0.00000   0.00000   0.00000
  23        2PZ         0.00000  -0.00000   0.00000  -0.00000   0.08764
  24        3S          0.00000   0.00000   0.00000   0.00000  -0.48892
  25        3PX         0.00000   0.00000   0.00000   0.00000   0.00000
  26        3PY         0.00000   0.00000   0.00000   0.00000   0.00000
  27        3PZ         0.00000  -0.00000   0.00000   0.00000  -0.43125
  28        4S          0.00000  -0.00000   0.00000   0.00000   0.18252
  29        4PX         0.00000   0.00000   0.00000   0.00000   0.00000
  30        4PY         0.00000   0.00000   0.00000   0.00000   0.00000
  31        4PZ         0.00000   0.00000   0.00000   0.00000   0.48206
  32        5D 0        0.00000   0.00000   0.00000   0.00000   0.72270
  33        5D+1        0.00000   0.00000   0.00000   0.00000   0.00000
  34        5D-1        0.00000   0.00000   0.00000   0.00000   0.00000
  35        5D+2        0.00000   0.67555   0.00000  -0.74354  -0.00000
  36        5D-2        0.67555   0.00000  -0.74354   0.00000   0.00000
                          26        27        28        29        30
                       (PIG)--V  (PIG)--V  (SGU)--V  (PIU)--V  (PIU)--V
     Eigenvalues --     2.69945   2.69945   2.91143   3.52728   3.52728
   1 1   N  1S          0.00000   0.00000  -0.02364   0.00000   0.00000
   2        2S          0.00000   0.00000  -0.04790   0.00000   0.00000
   3        2PX        -0.18500   0.00000   0.00000  -0.90192   0.00000
   4        2PY         0.00000  -0.18500   0.00000   0.00000  -0.90192
   5        2PZ         0.00000   0.00000  -0.45014   0.00000   0.00000
   6        3S          0.00000   0.00000   0.12215   0.00000   0.00000
   7        3PX         0.08614   0.00000   0.00000   0.96455   0.00000
   8        3PY         0.00000   0.08614   0.00000   0.00000   0.96455
   9        3PZ         0.00000   0.00000  -0.14229   0.00000   0.00000
  10        4S          0.00000   0.00000   2.42795   0.00000   0.00000
  11        4PX        -0.38763   0.00000   0.00000  -0.34092   0.00000
  12        4PY         0.00000  -0.38763   0.00000   0.00000  -0.34092
  13        4PZ         0.00000   0.00000  -1.37036   0.00000   0.00000
  14        5D 0        0.00000   0.00000   0.97148   0.00000   0.00000
  15        5D+1        0.90884   0.00000   0.00000   0.09659   0.00000
  16        5D-1        0.00000   0.90884   0.00000   0.00000   0.09659
  17        5D+2        0.00000   0.00000   0.00000   0.00000   0.00000
  18        5D-2        0.00000   0.00000   0.00000   0.00000   0.00000
  19 2   N  1S          0.00000   0.00000   0.02364   0.00000   0.00000
  20        2S          0.00000   0.00000   0.04790   0.00000   0.00000
  21        2PX         0.18500   0.00000   0.00000  -0.90192   0.00000
  22        2PY         0.00000   0.18500   0.00000   0.00000  -0.90192
  23        2PZ         0.00000   0.00000  -0.45014   0.00000   0.00000
  24        3S          0.00000   0.00000  -0.12215   0.00000   0.00000
  25        3PX        -0.08614   0.00000   0.00000   0.96455   0.00000
  26        3PY         0.00000  -0.08614   0.00000   0.00000   0.96455
  27        3PZ         0.00000   0.00000  -0.14229   0.00000   0.00000
  28        4S          0.00000   0.00000  -2.42795   0.00000   0.00000
  29        4PX         0.38763   0.00000   0.00000  -0.34092   0.00000
  30        4PY         0.00000   0.38763   0.00000   0.00000  -0.34092
  31        4PZ         0.00000   0.00000  -1.37036   0.00000   0.00000
  32        5D 0        0.00000   0.00000  -0.97148   0.00000   0.00000
  33        5D+1        0.90884   0.00000   0.00000  -0.09659   0.00000
  34        5D-1        0.00000   0.90884   0.00000   0.00000  -0.09659
  35        5D+2        0.00000   0.00000  -0.00000   0.00000   0.00000
  36        5D-2        0.00000   0.00000   0.00000   0.00000   0.00000
                          31        32        33        34        35
                       (PIG)--V  (PIG)--V  (SGG)--V  (SGU)--V  (SGG)--V
     Eigenvalues --     3.83627   3.83627   3.86799   4.50388  34.91610
   1 1   N  1S          0.00000   0.00000   0.00748   0.06853  -1.51562
   2        2S          0.00000   0.00000   0.02130   0.12161   1.58702
   3        2PX        -0.90513   0.00000   0.00000   0.00000   0.00000
   4        2PY         0.00000  -0.90513   0.00000   0.00000   0.00000
   5        2PZ         0.00000   0.00000   0.93730  -0.86557   0.00851
   6        3S          0.00000   0.00000  -0.16376  -0.66536  -0.20633
   7        3PX         1.14012   0.00000   0.00000   0.00000   0.00000
   8        3PY         0.00000   1.14012   0.00000   0.00000   0.00000
   9        3PZ         0.00000   0.00000  -0.87291   2.30487  -0.00917
  10        4S          0.00000   0.00000   0.13828  -1.69523   0.10243
  11        4PX        -0.49647   0.00000   0.00000   0.00000   0.00000
  12        4PY         0.00000  -0.49647   0.00000   0.00000   0.00000
  13        4PZ         0.00000   0.00000   0.37083   0.40311  -0.01757
  14        5D 0        0.00000   0.00000   0.07865  -1.08304   0.02706
  15        5D+1       -0.28680   0.00000   0.00000   0.00000   0.00000
  16        5D-1        0.00000  -0.28680   0.00000   0.00000   0.00000
  17        5D+2        0.00000   0.00000  -0.00000  -0.00000  -0.00000
  18        5D-2        0.00000   0.00000   0.00000   0.00000   0.00000
  19 2   N  1S          0.00000   0.00000   0.00748  -0.06853  -1.51562
  20        2S          0.00000   0.00000   0.02130  -0.12161   1.58702
  21        2PX         0.90513   0.00000   0.00000   0.00000   0.00000
  22        2PY         0.00000   0.90513   0.00000   0.00000   0.00000
  23        2PZ         0.00000   0.00000  -0.93730  -0.86557  -0.00851
  24        3S          0.00000   0.00000  -0.16376   0.66536  -0.20633
  25        3PX        -1.14012   0.00000   0.00000   0.00000   0.00000
  26        3PY         0.00000  -1.14012   0.00000   0.00000   0.00000
  27        3PZ         0.00000   0.00000   0.87291   2.30487   0.00917
  28        4S          0.00000   0.00000   0.13828   1.69523   0.10243
  29        4PX         0.49647   0.00000   0.00000   0.00000   0.00000
  30        4PY         0.00000   0.49647   0.00000   0.00000   0.00000
  31        4PZ         0.00000   0.00000  -0.37083   0.40311   0.01757
  32        5D 0        0.00000   0.00000   0.07865   1.08304   0.02706
  33        5D+1       -0.28680   0.00000   0.00000   0.00000   0.00000
  34        5D-1        0.00000  -0.28680   0.00000   0.00000   0.00000
  35        5D+2        0.00000   0.00000  -0.00000   0.00000  -0.00000
  36        5D-2        0.00000   0.00000   0.00000   0.00000   0.00000
                          36
                       (SGU)--V
     Eigenvalues --    35.67947
   1 1   N  1S         -1.52067
   2        2S          1.62916
   3        2PX         0.00000
   4        2PY         0.00000
   5        2PZ        -0.07209
   6        3S         -0.33751
   7        3PX         0.00000
   8        3PY         0.00000
   9        3PZ         0.29690
  10        4S          0.17164
  11        4PX         0.00000
  12        4PY         0.00000
  13        4PZ        -0.08968
  14        5D 0       -0.16142
  15        5D+1        0.00000
  16        5D-1        0.00000
  17        5D+2        0.00000
  18        5D-2        0.00000
  19 2   N  1S          1.52067
  20        2S         -1.62916
  21        2PX         0.00000
  22        2PY         0.00000
  23        2PZ        -0.07209
  24        3S          0.33751
  25        3PX         0.00000
  26        3PY         0.00000
  27        3PZ         0.29690
  28        4S         -0.17164
  29        4PX         0.00000
  30        4PY         0.00000
  31        4PZ        -0.08968
  32        5D 0        0.16142
  33        5D+1        0.00000
  34        5D-1        0.00000
  35        5D+2       -0.00000
  36        5D-2        0.00000
     Density Matrix:
                           1         2         3         4         5
   1 1   N  1S          0.65491
   2        2S          0.57110   0.51507
   3        2PX        -0.00000  -0.00000   0.08331
   4        2PY        -0.00000  -0.00000   0.00000   0.08331
   5        2PZ        -0.01198  -0.01877   0.00000   0.00000   0.12755
   6        3S         -0.13425  -0.22321   0.00000   0.00000   0.04726
   7        3PX        -0.00000  -0.00000   0.12644   0.00000   0.00000
   8        3PY        -0.00000  -0.00000   0.00000   0.12644   0.00000
   9        3PZ        -0.01825  -0.02743   0.00000   0.00000   0.17734
  10        4S         -0.13893  -0.21374   0.00000   0.00000   0.17124
  11        4PX        -0.00000  -0.00000   0.09548   0.00000   0.00000
  12        4PY        -0.00000  -0.00000   0.00000   0.09548   0.00000
  13        4PZ        -0.01270  -0.02215   0.00000   0.00000   0.10434
  14        5D 0        0.00196   0.00193   0.00000   0.00000  -0.01510
  15        5D+1        0.00000   0.00000  -0.01547   0.00000  -0.00000
  16        5D-1        0.00000   0.00000   0.00000  -0.01547  -0.00000
  17        5D+2       -0.00000  -0.00000  -0.00000   0.00000  -0.00000
  18        5D-2        0.00000   0.00000  -0.00000  -0.00000   0.00000
  19 2   N  1S          0.00207   0.00328   0.00000   0.00000   0.01810
  20        2S          0.00328   0.00439   0.00000   0.00000   0.02880
  21        2PX        -0.00000  -0.00000   0.08331   0.00000  -0.00000
  22        2PY        -0.00000  -0.00000   0.00000   0.08331  -0.00000
  23        2PZ        -0.01810  -0.02880  -0.00000  -0.00000  -0.09887
  24        3S         -0.00648  -0.00619  -0.00000  -0.00000  -0.09358
  25        3PX        -0.00000  -0.00000   0.12644   0.00000  -0.00000
  26        3PY        -0.00000  -0.00000   0.00000   0.12644  -0.00000
  27        3PZ        -0.02928  -0.04278  -0.00000  -0.00000  -0.13836
  28        4S          0.03389   0.05277   0.00000   0.00000   0.01519
  29        4PX        -0.00000  -0.00000   0.09548   0.00000  -0.00000
  30        4PY        -0.00000  -0.00000   0.00000   0.09548  -0.00000
  31        4PZ        -0.00058  -0.00215  -0.00000  -0.00000  -0.08747
  32        5D 0       -0.00631  -0.00815  -0.00000  -0.00000  -0.01104
  33        5D+1       -0.00000  -0.00000   0.01547  -0.00000  -0.00000
  34        5D-1       -0.00000  -0.00000   0.00000   0.01547  -0.00000
  35        5D+2        0.00000  -0.00000   0.00000  -0.00000   0.00000
  36        5D-2        0.00000   0.00000   0.00000   0.00000   0.00000
                           6         7         8         9        10
   6        3S          0.68913
   7        3PX         0.00000   0.19189
   8        3PY         0.00000   0.00000   0.19189
   9        3PZ         0.06556   0.00000   0.00000   0.24666
  10        4S          0.59962   0.00000   0.00000   0.23761   0.66569
  11        4PX         0.00000   0.14490   0.00000   0.00000   0.00000
  12        4PY         0.00000   0.00000   0.14490   0.00000   0.00000
  13        4PZ         0.06472   0.00000   0.00000   0.14545   0.15467
  14        5D 0       -0.00109   0.00000   0.00000  -0.02097  -0.01755
  15        5D+1       -0.00000  -0.02348   0.00000  -0.00000  -0.00000
  16        5D-1       -0.00000   0.00000  -0.02348  -0.00000  -0.00000
  17        5D+2       -0.00000  -0.00000   0.00000  -0.00000  -0.00000
  18        5D-2        0.00000  -0.00000  -0.00000   0.00000   0.00000
  19 2   N  1S         -0.00648   0.00000   0.00000   0.02928   0.03389
  20        2S         -0.00619   0.00000   0.00000   0.04278   0.05277
  21        2PX         0.00000   0.12644   0.00000  -0.00000  -0.00000
  22        2PY         0.00000   0.00000   0.12644  -0.00000  -0.00000
  23        2PZ         0.09358  -0.00000  -0.00000  -0.13836  -0.01519
  24        3S         -0.00338  -0.00000  -0.00000  -0.12571  -0.16662
  25        3PX         0.00000   0.19189   0.00000  -0.00000  -0.00000
  26        3PY         0.00000   0.00000   0.19189  -0.00000  -0.00000
  27        3PZ         0.12571  -0.00000  -0.00000  -0.19359  -0.02536
  28        4S         -0.16662   0.00000   0.00000   0.02536  -0.18369
  29        4PX         0.00000   0.14490   0.00000  -0.00000  -0.00000
  30        4PY         0.00000   0.00000   0.14490  -0.00000  -0.00000
  31        4PZ         0.01828  -0.00000  -0.00000  -0.12257  -0.06295
  32        5D 0        0.01874  -0.00000  -0.00000  -0.01541   0.00462
  33        5D+1        0.00000   0.02348   0.00000  -0.00000   0.00000
  34        5D-1        0.00000   0.00000   0.02348  -0.00000   0.00000
  35        5D+2        0.00000   0.00000  -0.00000   0.00000   0.00000
  36        5D-2        0.00000   0.00000   0.00000   0.00000   0.00000
                          11        12        13        14        15
  11        4PX         0.10942
  12        4PY         0.00000   0.10942
  13        4PZ        -0.00000  -0.00000   0.09165
  14        5D 0        0.00000   0.00000  -0.01148   0.00192
  15        5D+1       -0.01773   0.00000  -0.00000  -0.00000   0.00287
  16        5D-1        0.00000  -0.01773  -0.00000  -0.00000   0.00000
  17        5D+2       -0.00000   0.00000  -0.00000   0.00000   0.00000
  18        5D-2       -0.00000  -0.00000   0.00000   0.00000   0.00000
  19 2   N  1S          0.00000   0.00000   0.00058  -0.00631  -0.00000
  20        2S          0.00000   0.00000   0.00215  -0.00815  -0.00000
  21        2PX         0.09548   0.00000  -0.00000   0.00000  -0.01547
  22        2PY         0.00000   0.09548  -0.00000   0.00000   0.00000
  23        2PZ        -0.00000  -0.00000  -0.08747   0.01104   0.00000
  24        3S         -0.00000  -0.00000  -0.01828   0.01874   0.00000
  25        3PX         0.14490   0.00000  -0.00000   0.00000  -0.02348
  26        3PY         0.00000   0.14490  -0.00000   0.00000   0.00000
  27        3PZ        -0.00000  -0.00000  -0.12257   0.01541   0.00000
  28        4S          0.00000   0.00000   0.06295   0.00462   0.00000
  29        4PX         0.10942   0.00000  -0.00000   0.00000  -0.01773
  30        4PY         0.00000   0.10942  -0.00000   0.00000   0.00000
  31        4PZ        -0.00000  -0.00000  -0.08170   0.00911   0.00000
  32        5D 0       -0.00000  -0.00000  -0.00911   0.00132   0.00000
  33        5D+1        0.01773   0.00000  -0.00000   0.00000  -0.00287
  34        5D-1        0.00000   0.01773  -0.00000   0.00000   0.00000
  35        5D+2        0.00000  -0.00000   0.00000  -0.00000  -0.00000
  36        5D-2        0.00000   0.00000   0.00000   0.00000  -0.00000
                          16        17        18        19        20
  16        5D-1        0.00287
  17        5D+2       -0.00000   0.00000
  18        5D-2        0.00000   0.00000   0.00000
  19 2   N  1S         -0.00000   0.00000   0.00000   0.65491
  20        2S         -0.00000  -0.00000   0.00000   0.57110   0.51507
  21        2PX         0.00000  -0.00000  -0.00000   0.00000   0.00000
  22        2PY        -0.01547   0.00000  -0.00000   0.00000   0.00000
  23        2PZ         0.00000  -0.00000   0.00000   0.01198   0.01877
  24        3S          0.00000   0.00000   0.00000  -0.13425  -0.22321
  25        3PX         0.00000  -0.00000  -0.00000   0.00000   0.00000
  26        3PY        -0.02348   0.00000  -0.00000   0.00000   0.00000
  27        3PZ         0.00000  -0.00000   0.00000   0.01825   0.02743
  28        4S          0.00000   0.00000   0.00000  -0.13893  -0.21374
  29        4PX         0.00000  -0.00000  -0.00000   0.00000   0.00000
  30        4PY        -0.01773   0.00000  -0.00000   0.00000   0.00000
  31        4PZ         0.00000  -0.00000   0.00000   0.01270   0.02215
  32        5D 0        0.00000  -0.00000   0.00000   0.00196   0.00193
  33        5D+1        0.00000  -0.00000  -0.00000   0.00000   0.00000
  34        5D-1       -0.00287   0.00000  -0.00000   0.00000   0.00000
  35        5D+2        0.00000   0.00000   0.00000  -0.00000  -0.00000
  36        5D-2       -0.00000   0.00000  -0.00000   0.00000   0.00000
                          21        22        23        24        25
  21        2PX         0.08331
  22        2PY         0.00000   0.08331
  23        2PZ         0.00000   0.00000   0.12755
  24        3S         -0.00000  -0.00000  -0.04726   0.68913
  25        3PX         0.12644   0.00000   0.00000  -0.00000   0.19189
  26        3PY         0.00000   0.12644   0.00000  -0.00000   0.00000
  27        3PZ         0.00000   0.00000   0.17734  -0.06556   0.00000
  28        4S         -0.00000  -0.00000  -0.17124   0.59962  -0.00000
  29        4PX         0.09548   0.00000   0.00000  -0.00000   0.14490
  30        4PY         0.00000   0.09548   0.00000  -0.00000   0.00000
  31        4PZ         0.00000   0.00000   0.10434  -0.06472   0.00000
  32        5D 0       -0.00000  -0.00000   0.01510  -0.00109  -0.00000
  33        5D+1        0.01547   0.00000   0.00000  -0.00000   0.02348
  34        5D-1        0.00000   0.01547   0.00000  -0.00000   0.00000
  35        5D+2        0.00000  -0.00000   0.00000  -0.00000   0.00000
  36        5D-2        0.00000   0.00000   0.00000   0.00000   0.00000
                          26        27        28        29        30
  26        3PY         0.19189
  27        3PZ         0.00000   0.24666
  28        4S         -0.00000  -0.23761   0.66569
  29        4PX         0.00000   0.00000  -0.00000   0.10942
  30        4PY         0.14490   0.00000  -0.00000   0.00000   0.10942
  31        4PZ         0.00000   0.14545  -0.15467  -0.00000  -0.00000
  32        5D 0       -0.00000   0.02097  -0.01755  -0.00000  -0.00000
  33        5D+1        0.00000   0.00000  -0.00000   0.01773   0.00000
  34        5D-1        0.02348   0.00000  -0.00000   0.00000   0.01773
  35        5D+2       -0.00000   0.00000  -0.00000   0.00000  -0.00000
  36        5D-2        0.00000   0.00000   0.00000   0.00000   0.00000
                          31        32        33        34        35
  31        4PZ         0.09165
  32        5D 0        0.01148   0.00192
  33        5D+1        0.00000  -0.00000   0.00287
  34        5D-1        0.00000  -0.00000   0.00000   0.00287
  35        5D+2        0.00000   0.00000   0.00000  -0.00000   0.00000
  36        5D-2        0.00000   0.00000   0.00000   0.00000   0.00000
                          36
  36        5D-2        0.00000
    Full Mulliken population analysis:
                           1         2         3         4         5
   1 1   N  1S          0.65491
   2        2S          0.50958   0.51507
   3        2PX         0.00000   0.00000   0.08331
   4        2PY         0.00000   0.00000   0.00000   0.08331
   5        2PZ         0.00000   0.00000  -0.00000   0.00000   0.12755
   6        3S         -0.04621  -0.09171   0.00000   0.00000   0.00000
   7        3PX         0.00000   0.00000   0.07839   0.00000  -0.00000
   8        3PY         0.00000   0.00000   0.00000   0.07839   0.00000
   9        3PZ         0.00000   0.00000  -0.00000   0.00000   0.10995
  10        4S         -0.02201  -0.03845   0.00000   0.00000   0.00000
  11        4PX         0.00000   0.00000   0.02003   0.00000  -0.00000
  12        4PY         0.00000   0.00000   0.00000   0.02003   0.00000
  13        4PZ         0.00000   0.00000  -0.00000   0.00000   0.02189
  14        5D 0        0.00000   0.00000   0.00000   0.00000   0.00000
  15        5D+1        0.00000   0.00000   0.00000   0.00000   0.00000
  16        5D-1        0.00000   0.00000   0.00000   0.00000   0.00000
  17        5D+2        0.00000   0.00000   0.00000   0.00000   0.00000
  18        5D-2        0.00000   0.00000   0.00000   0.00000   0.00000
  19 2   N  1S          0.00000   0.00000  -0.00000  -0.00000  -0.00003
  20        2S          0.00000  -0.00000  -0.00000  -0.00000  -0.00002
  21        2PX         0.00000  -0.00000   0.00025   0.00000   0.00000
  22        2PY        -0.00000  -0.00000   0.00000   0.00025   0.00000
  23        2PZ        -0.00003  -0.00002   0.00000   0.00000   0.00295
  24        3S         -0.00011  -0.00010   0.00000   0.00000   0.00732
  25        3PX         0.00000  -0.00000   0.00528   0.00000   0.00000
  26        3PY        -0.00000  -0.00000   0.00000   0.00528   0.00000
  27        3PZ        -0.00154  -0.00241   0.00000   0.00000   0.02527
  28        4S          0.00200   0.00347  -0.00000  -0.00000  -0.00126
  29        4PX         0.00000  -0.00000   0.00776   0.00000   0.00000
  30        4PY        -0.00000  -0.00000   0.00000   0.00776   0.00000
  31        4PZ        -0.00007  -0.00028   0.00000   0.00000   0.00637
  32        5D 0       -0.00037  -0.00053   0.00000   0.00000   0.00238
  33        5D+1        0.00000   0.00000   0.00124   0.00000   0.00000
  34        5D-1       -0.00000  -0.00000   0.00000   0.00124   0.00000
  35        5D+2        0.00000   0.00000   0.00000   0.00000   0.00000
  36        5D-2        0.00000   0.00000   0.00000   0.00000   0.00000
                           6         7         8         9        10
   6        3S          0.68913
   7        3PX         0.00000   0.19189
   8        3PY         0.00000   0.00000   0.19189
   9        3PZ         0.00000  -0.00000   0.00000   0.24666
  10        4S          0.45981   0.00000   0.00000   0.00000   0.66569
  11        4PX         0.00000   0.09309   0.00000  -0.00000   0.00000
  12        4PY         0.00000   0.00000   0.09309   0.00000   0.00000
  13        4PZ         0.00000  -0.00000   0.00000   0.09345   0.00000
  14        5D 0        0.00000   0.00000   0.00000   0.00000   0.00000
  15        5D+1        0.00000   0.00000   0.00000   0.00000   0.00000
  16        5D-1        0.00000   0.00000   0.00000   0.00000   0.00000
  17        5D+2        0.00000   0.00000   0.00000   0.00000   0.00000
  18        5D-2        0.00000   0.00000   0.00000   0.00000   0.00000
  19 2   N  1S         -0.00011  -0.00000  -0.00000  -0.00154   0.00200
  20        2S         -0.00010   0.00000  -0.00000  -0.00241   0.00347
  21        2PX         0.00000   0.00528   0.00000   0.00000   0.00000
  22        2PY         0.00000   0.00000   0.00528   0.00000  -0.00000
  23        2PZ         0.00732   0.00000   0.00000   0.02527  -0.00126
  24        3S         -0.00058   0.00000   0.00000   0.04062  -0.05750
  25        3PX         0.00000   0.03306   0.00000   0.00000  -0.00000
  26        3PY         0.00000   0.00000   0.03306   0.00000  -0.00000
  27        3PZ         0.04062   0.00000   0.00000   0.08395  -0.00745
  28        4S         -0.05750   0.00000  -0.00000  -0.00745  -0.10959
  29        4PX         0.00000   0.04189   0.00000   0.00000  -0.00000
  30        4PY         0.00000   0.00000   0.04189   0.00000  -0.00000
  31        4PZ         0.00991   0.00000   0.00000   0.02115  -0.03817
  32        5D 0        0.00491   0.00000   0.00000   0.00435   0.00047
  33        5D+1        0.00000   0.00568   0.00000   0.00000   0.00000
  34        5D-1        0.00000   0.00000   0.00568   0.00000   0.00000
  35        5D+2        0.00000   0.00000   0.00000   0.00000   0.00000
  36        5D-2        0.00000   0.00000   0.00000   0.00000   0.00000
                          11        12        13        14        15
  11        4PX         0.10942
  12        4PY         0.00000   0.10942
  13        4PZ         0.00000   0.00000   0.09165
  14        5D 0        0.00000   0.00000   0.00000   0.00192
  15        5D+1        0.00000   0.00000   0.00000   0.00000   0.00287
  16        5D-1        0.00000   0.00000   0.00000   0.00000   0.00000
  17        5D+2        0.00000   0.00000   0.00000   0.00000  -0.00000
  18        5D-2        0.00000   0.00000   0.00000   0.00000   0.00000
  19 2   N  1S         -0.00000  -0.00000  -0.00007  -0.00037  -0.00000
  20        2S          0.00000  -0.00000  -0.00028  -0.00053  -0.00000
  21        2PX         0.00776   0.00000   0.00000   0.00000   0.00124
  22        2PY         0.00000   0.00776   0.00000   0.00000   0.00000
  23        2PZ         0.00000   0.00000   0.00637   0.00238   0.00000
  24        3S          0.00000   0.00000   0.00991   0.00491   0.00000
  25        3PX         0.04189   0.00000   0.00000   0.00000   0.00568
  26        3PY         0.00000   0.04189   0.00000   0.00000   0.00000
  27        3PZ         0.00000   0.00000   0.02115   0.00435   0.00000
  28        4S         -0.00000  -0.00000  -0.03817   0.00047   0.00000
  29        4PX         0.06528   0.00000   0.00000   0.00000   0.00308
  30        4PY         0.00000   0.06528   0.00000   0.00000   0.00000
  31        4PZ         0.00000   0.00000   0.00161  -0.00028   0.00000
  32        5D 0        0.00000   0.00000  -0.00028   0.00026   0.00000
  33        5D+1        0.00308   0.00000   0.00000   0.00000   0.00101
  34        5D-1        0.00000   0.00308   0.00000   0.00000   0.00000
  35        5D+2        0.00000   0.00000   0.00000   0.00000   0.00000
  36        5D-2        0.00000   0.00000   0.00000   0.00000   0.00000
                          16        17        18        19        20
  16        5D-1        0.00287
  17        5D+2        0.00000   0.00000
  18        5D-2       -0.00000   0.00000   0.00000
  19 2   N  1S         -0.00000   0.00000   0.00000   0.65491
  20        2S         -0.00000   0.00000   0.00000   0.50958   0.51507
  21        2PX         0.00000   0.00000   0.00000   0.00000   0.00000
  22        2PY         0.00124   0.00000   0.00000   0.00000   0.00000
  23        2PZ         0.00000   0.00000   0.00000   0.00000   0.00000
  24        3S          0.00000   0.00000   0.00000  -0.04621  -0.09171
  25        3PX         0.00000   0.00000   0.00000   0.00000   0.00000
  26        3PY         0.00568   0.00000   0.00000   0.00000   0.00000
  27        3PZ         0.00000   0.00000   0.00000   0.00000   0.00000
  28        4S          0.00000   0.00000   0.00000  -0.02201  -0.03845
  29        4PX         0.00000   0.00000   0.00000   0.00000   0.00000
  30        4PY         0.00308   0.00000   0.00000   0.00000   0.00000
  31        4PZ         0.00000   0.00000   0.00000   0.00000   0.00000
  32        5D 0        0.00000   0.00000   0.00000   0.00000   0.00000
  33        5D+1        0.00000   0.00000   0.00000   0.00000   0.00000
  34        5D-1        0.00101   0.00000   0.00000   0.00000   0.00000
  35        5D+2        0.00000   0.00000   0.00000   0.00000   0.00000
  36        5D-2        0.00000   0.00000  -0.00000   0.00000   0.00000
                          21        22        23        24        25
  21        2PX         0.08331
  22        2PY         0.00000   0.08331
  23        2PZ         0.00000   0.00000   0.12755
  24        3S          0.00000   0.00000   0.00000   0.68913
  25        3PX         0.07839   0.00000   0.00000   0.00000   0.19189
  26        3PY         0.00000   0.07839   0.00000   0.00000   0.00000
  27        3PZ         0.00000   0.00000   0.10995   0.00000   0.00000
  28        4S          0.00000   0.00000   0.00000   0.45981   0.00000
  29        4PX         0.02003   0.00000   0.00000   0.00000   0.09309
  30        4PY         0.00000   0.02003   0.00000   0.00000   0.00000
  31        4PZ         0.00000   0.00000   0.02189   0.00000   0.00000
  32        5D 0        0.00000   0.00000   0.00000   0.00000   0.00000
  33        5D+1        0.00000   0.00000   0.00000   0.00000   0.00000
  34        5D-1        0.00000   0.00000   0.00000   0.00000   0.00000
  35        5D+2        0.00000   0.00000   0.00000   0.00000   0.00000
  36        5D-2        0.00000   0.00000   0.00000   0.00000   0.00000
                          26        27        28        29        30
  26        3PY         0.19189
  27        3PZ         0.00000   0.24666
  28        4S          0.00000   0.00000   0.66569
  29        4PX         0.00000   0.00000   0.00000   0.10942
  30        4PY         0.09309   0.00000   0.00000   0.00000   0.10942
  31        4PZ         0.00000   0.09345   0.00000   0.00000   0.00000
  32        5D 0        0.00000   0.00000   0.00000   0.00000   0.00000
  33        5D+1        0.00000   0.00000   0.00000   0.00000   0.00000
  34        5D-1        0.00000   0.00000   0.00000   0.00000   0.00000
  35        5D+2        0.00000   0.00000   0.00000   0.00000   0.00000
  36        5D-2        0.00000   0.00000   0.00000   0.00000   0.00000
                          31        32        33        34        35
  31        4PZ         0.09165
  32        5D 0        0.00000   0.00192
  33        5D+1        0.00000   0.00000   0.00287
  34        5D-1        0.00000   0.00000   0.00000   0.00287
  35        5D+2        0.00000   0.00000   0.00000   0.00000   0.00000
  36        5D-2        0.00000   0.00000   0.00000   0.00000   0.00000
                          36
  36        5D-2        0.00000
     Gross orbital populations:
                           1
   1 1   N  1S          1.09615
   2        2S          0.89462
   3        2PX         0.19626
   4        2PY         0.19626
   5        2PZ         0.30236
   6        3S          1.01549
   7        3PX         0.44929
   8        3PY         0.44929
   9        3PZ         0.61400
  10        4S          0.85703
  11        4PX         0.34056
  12        4PY         0.34056
  13        4PZ         0.20722
  14        5D 0        0.01312
  15        5D+1        0.01389
  16        5D-1        0.01389
  17        5D+2        0.00000
  18        5D-2        0.00000
  19 2   N  1S          1.09615
  20        2S          0.89462
  21        2PX         0.19626
  22        2PY         0.19626
  23        2PZ         0.30236
  24        3S          1.01549
  25        3PX         0.44929
  26        3PY         0.44929
  27        3PZ         0.61400
  28        4S          0.85703
  29        4PX         0.34056
  30        4PY         0.34056
  31        4PZ         0.20722
  32        5D 0        0.01312
  33        5D+1        0.01389
  34        5D-1        0.01389
  35        5D+2        0.00000
  36        5D-2        0.00000
          Condensed to atoms (all electrons):
              1          2
     1  N    6.526222   0.473778
     2  N    0.473778   6.526222
 Mulliken atomic charges:
              1
     1  N   -0.000000
     2  N   -0.000000
 Sum of Mulliken atomic charges =  -0.00000
 Mulliken charges with hydrogens summed into heavy atoms:
              1
     1  N   -0.000000
     2  N   -0.000000
 Sum of Mulliken charges with hydrogens summed into heavy atoms =  -0.00000
 Electronic spatial extent (au):  <R**2>=             42.1131
 Charge=             -0.0000 electrons
 Dipole moment (field-independent basis, Debye):
    X=             -0.0000    Y=             -0.0000    Z=             -0.0000  Tot=              0.0000
 Quadrupole moment (field-independent basis, Debye-Ang):
   XX=            -10.3191   YY=            -10.3191   ZZ=            -11.7971
   XY=              0.0000   XZ=              0.0000   YZ=             -0.0000
 Traceless Quadrupole moment (field-independent basis, Debye-Ang):
   XX=              0.4926   YY=              0.4926   ZZ=             -0.9853
   XY=              0.0000   XZ=              0.0000   YZ=             -0.0000
 Octapole moment (field-independent basis, Debye-Ang**2):
  XXX=             -0.0000  YYY=              0.0000  ZZZ=              0.0000  XYY=             -0.0000
  XXY=              0.0000  XXZ=              0.0000  XZZ=             -0.0000  YZZ=              0.0000
  YYZ=             -0.0000  XYZ=             -0.0000
 Hexadecapole moment (field-independent basis, Debye-Ang**3):
 XXXX=             -8.5181 YYYY=             -8.5181 ZZZZ=            -34.9682 XXXY=              0.0000
 XXXZ=              0.0000 YYYX=              0.0000 YYYZ=             -0.0000 ZZZX=              0.0000
 ZZZY=             -0.0000 XXYY=             -2.8394 XXZZ=             -6.8286 YYZZ=             -6.8286
 XXYZ=             -0.0000 YYXZ=              0.0000 ZZXY=              0.0000
 N-N= 2.160806935076D+01 E-N=-2.995045811572D+02  KE= 1.087892248514D+02
 Symmetry AG   KE= 5.304338937142D+01
 Symmetry B1G  KE= 8.967092639406D-35
 Symmetry B2G  KE= 7.420063347379D-33
 Symmetry B3G  KE= 5.071552646888D-32
 Symmetry AU   KE= 2.965685800545D-34
 Symmetry B1U  KE= 4.898705576476D+01
 Symmetry B2U  KE= 3.379389857599D+00
 Symmetry B3U  KE= 3.379389857599D+00
 Orbital energies and kinetic energies (alpha):
                                 1                 2
   1 (SGG)--O                -14.513373         22.056804
   2 (SGU)--O                -14.512630         22.048469
   3 (SGG)--O                 -1.080513          2.412698
   4 (SGU)--O                 -0.596879          2.445059
   5 (PIU)--O                 -0.455565          1.689695
   6 (PIU)--O                 -0.455565          1.689695
   7 (SGG)--O                 -0.432725          2.052193
   8 (PIG)--V                 -0.059432          2.110030
   9 (PIG)--V                 -0.059432          2.110030
  10 (SGU)--V                  0.339304          1.984207
  11 (PIU)--V                  0.520136          1.730196
  12 (PIU)--V                  0.520136          1.730196
  13 (SGG)--V                  0.533066          1.314831
  14 (SGG)--V                  0.613617          2.982379
  15 (PIG)--V                  0.645450          1.993359
  16 (PIG)--V                  0.645450          1.993359
  17 (SGU)--V                  0.658604          3.233466
  18 (SGU)--V                  1.016996          3.446371
  19 (PIU)--V                  1.629455          3.138929
  20 (PIU)--V                  1.629455          3.138929
  21 (DLTG)--V                 1.726828          3.008466
  22 (DLTG)--V                 1.726841          3.008466
  23 (DLTU)--V                 2.114404          3.422080
  24 (DLTU)--V                 2.114420          3.422080
  25 (SGG)--V                  2.355621          3.906401
  26 (PIG)--V                  2.699448          4.331360
  27 (PIG)--V                  2.699448          4.331360
  28 (SGU)--V                  2.911428          5.852651
  29 (PIU)--V                  3.527281          8.767800
  30 (PIU)--V                  3.527281          8.767800
  31 (PIG)--V                  3.836273          8.801082
  32 (PIG)--V                  3.836273          8.801082
  33 (SGG)--V                  3.867994          9.540180
  34 (SGU)--V                  4.503884          9.087561
  35 (SGG)--V                 34.916104         89.024271
  36 (SGU)--V                 35.679467         88.993761
 Total kinetic energy from orbitals= 1.087892248514D+02
 No NMR shielding tensors so no spin-rotation constants.
 Leave Link  601 at Fri Apr 25 16:31:42 2014, MaxMem=   65536000 cpu:       0.4
 (Enter /apps/gaussian/g09/l701.exe)
 Compute integral first derivatives.
 ... and contract with generalized density number  0.
 Leave Link  701 at Fri Apr 25 16:31:42 2014, MaxMem=   65536000 cpu:       0.8
 (Enter /apps/gaussian/g09/l702.exe)
 L702 exits ... SP integral derivatives will be done elsewhere.
 Leave Link  702 at Fri Apr 25 16:31:42 2014, MaxMem=   65536000 cpu:       0.1
 (Enter /apps/gaussian/g09/l703.exe)
 Compute integral first derivatives, UseDBF=F ICtDFT=           0.
 Integral derivatives from FoFDir, PRISM(SPDF).
 Calling FoFJK, ICntrl=      2127 FMM=F ISym2X=1 I1Cent= 0 IOpClX= 0 NMat=1 NMatS=1 NMatT=0.
 FoFCou: FMM=F IPFlag=           0 FMFlag=      100000 FMFlg1=         800
         NFxFlg=           0 DoJE=F BraDBF=F KetDBF=F FulRan=T
         Omega=  0.000000  0.000000  1.000000  0.000000  0.000000 ICntrl=    2127 IOpCl=  0
         NMat0=    1 NMatS0=    1 NMatT0=    0 NMatD0=    1 NMtDS0=    0 NMtDT0=    0
         I1Cent=           0 NGrid=           0.
 Petite list used in FoFCou.
 Leave Link  703 at Fri Apr 25 16:31:42 2014, MaxMem=   65536000 cpu:       0.5
 (Enter /apps/gaussian/g09/l716.exe)
 Dipole        =-9.86076132D-31-1.34213243D-33 0.00000000D+00
 ***** Axes restored to original set *****
 -------------------------------------------------------------------
 Center     Atomic                   Forces (Hartrees/Bohr)
 Number     Number              X              Y              Z
 -------------------------------------------------------------------
      1        7           0.000000000    0.000000000    0.222593928
      2        7          -0.000000000   -0.000000000   -0.222593928
 -------------------------------------------------------------------
 Cartesian Forces:  Max     0.222593928 RMS     0.128514664
 Leave Link  716 at Fri Apr 25 16:31:42 2014, MaxMem=   65536000 cpu:       0.1
 (Enter /apps/gaussian/g09/l103.exe)

 GradGradGradGradGradGradGradGradGradGradGradGradGradGradGradGradGradGrad
 Berny optimization.
 Internal  Forces:  Max     0.222593928 RMS     0.222593928
 Search for a local minimum.
 Step number   1 out of a maximum of   20
 All quantities printed in internal units (Hartrees-Bohrs-Radians)
 RMS Force = .22259D+00 SwitMx=.10000D-02 MixMth= 1
 Mixed Optimization -- RFO/linear search
 Second derivative matrix not updated -- first step.
 The second derivative matrix:
                          R1
           R1           1.04823
     Eigenvalues ---    1.04823
 RFO step:  Lambda=-4.53097630D-02 EMin= 1.04823065D+00
 Linear search not attempted -- first point.
 Iteration  1 RMS(Cart)=  0.14142136 RMS(Int)=  0.00355345
 Iteration  2 RMS(Cart)=  0.00251267 RMS(Int)=  0.00000000
 Iteration  3 RMS(Cart)=  0.00000000 RMS(Int)=  0.00000000
 ClnCor:  largest displacement from symmetrization is 5.59D-17 for atom     1.
 Variable       Old X    -DE/DX   Delta X   Delta X   Delta X     New X
                                 (Linear)    (Quad)   (Total)
    R1        2.26767  -0.22259   0.00000  -0.20355  -0.20355   2.06412
         Item               Value     Threshold  Converged?
 Maximum Force            0.222594     0.000450     NO 
 RMS     Force            0.222594     0.000300     NO 
 Maximum Displacement     0.101777     0.001800     NO 
 RMS     Displacement     0.143934     0.001200     NO 
 Predicted change in Energy=-2.359356D-02
 GradGradGradGradGradGradGradGradGradGradGradGradGradGradGradGradGradGrad

 Leave Link  103 at Fri Apr 25 16:31:42 2014, MaxMem=   65536000 cpu:       0.0
 (Enter /apps/gaussian/g09/l202.exe)
                          Input orientation:                          
 ---------------------------------------------------------------------
 Center     Atomic      Atomic             Coordinates (Angstroms)
 Number     Number       Type             X           Y           Z
 ---------------------------------------------------------------------
      1          7           0        0.000000    0.000000    0.053858
      2          7           0        0.000000    0.000000    1.146142
 ---------------------------------------------------------------------
 Stoichiometry    N2
 Framework group  D*H[C*(N.N)]
 Deg. of freedom     1
 Full point group                 D*H     NOp   8
 Largest Abelian subgroup         D2H     NOp   8
 Largest concise Abelian subgroup C2      NOp   2
                         Standard orientation:                         
 ---------------------------------------------------------------------
 Center     Atomic      Atomic             Coordinates (Angstroms)
 Number     Number       Type             X           Y           Z
 ---------------------------------------------------------------------
      1          7           0        0.000000    0.000000    0.546142
      2          7           0        0.000000    0.000000   -0.546142
 ---------------------------------------------------------------------
 Rotational constants (GHZ):      0.0000000     60.4996056     60.4996056
 Leave Link  202 at Fri Apr 25 16:31:42 2014, MaxMem=   65536000 cpu:       0.0
 (Enter /apps/gaussian/g09/l301.exe)
 Standard basis: 6-311G(d,p) (5D, 7F)
 Ernie: Thresh=  0.10000D-02 Tol=  0.10000D-05 Strict=F.
 There are     9 symmetry adapted basis functions of AG  symmetry.
 There are     1 symmetry adapted basis functions of B1G symmetry.
 There are     4 symmetry adapted basis functions of B2G symmetry.
 There are     4 symmetry adapted basis functions of B3G symmetry.
 There are     1 symmetry adapted basis functions of AU  symmetry.
 There are     9 symmetry adapted basis functions of B1U symmetry.
 There are     4 symmetry adapted basis functions of B2U symmetry.
 There are     4 symmetry adapted basis functions of B3U symmetry.
 Integral buffers will be    131072 words long.
 Raffenetti 2 integral format.
 Two-electron integral symmetry is turned on.
    36 basis functions,    64 primitive gaussians,    38 cartesian basis functions
     7 alpha electrons        7 beta electrons
       nuclear repulsion energy        23.7389539991 Hartrees.
 IExCor= 4235 DFT=T Ex+Corr=M06 ExCW=0 ScaHFX=  0.270000
 ScaDFX=  1.000000  1.000000  1.000000  1.000000 ScalE2=  1.000000  1.000000
 IRadAn=      0 IRanWt=     -1 IRanGd=            0 ICorTp=0
 NAtoms=    2 NActive=    2 NUniq=    1 SFac= 3.00D+00 NAtFMM=   80 NAOKFM=F Big=F
 Leave Link  301 at Fri Apr 25 16:31:42 2014, MaxMem=   65536000 cpu:       0.2
 (Enter /apps/gaussian/g09/l302.exe)
 NPDir=0 NMtPBC=     1 NCelOv=     1 NCel=       1 NClECP=     1 NCelD=      1
         NCelK=      1 NCelE2=     1 NClLst=     1 CellRange=     0.0.
 One-electron integrals computed using PRISM.
 One-electron integral symmetry used in STVInt
 NBasis=    36 RedAO= T  NBF=     9     1     4     4     1     9     4     4
 NBsUse=    36 1.00D-06 NBFU=     9     1     4     4     1     9     4     4
 Precomputing XC quadrature grid using
 IXCGrd= 2 IRadAn=           0 IRanWt=          -1 IRanGd=           0 AccXCQ= 1.00D-10.
 NRdTot=     120 NPtTot=       15216 NUsed=       16095 NTot=       16127
 NSgBfM=    38    38    38    38    38 NAtAll=     2     2.
 Leave Link  302 at Fri Apr 25 16:31:43 2014, MaxMem=   65536000 cpu:       0.5
 (Enter /apps/gaussian/g09/l303.exe)
 DipDrv:  MaxL=1.
 Leave Link  303 at Fri Apr 25 16:31:43 2014, MaxMem=   65536000 cpu:       0.1
 (Enter /apps/gaussian/g09/l401.exe)
 Initial guess read from the read-write file.
 B after Tr=     0.000000    0.000000    0.000000
         Rot=    1.000000    0.000000    0.000000    0.000000 Ang=   0.00 deg.
 Guess basis will be translated and rotated to current coordinates.
 Initial guess orbital symmetries:
       Occupied  (SGG) (SGU) (SGG) (SGU) (PIU) (PIU) (SGG)
       Virtual   (PIG) (PIG) (SGU) (PIU) (PIU) (SGG) (SGG) (PIG)
                 (PIG) (SGU) (SGU) (PIU) (PIU) (DLTG) (DLTG) (DLTU)
                 (DLTU) (SGG) (PIG) (PIG) (SGU) (PIU) (PIU) (PIG)
                 (PIG) (SGG) (SGU) (SGG) (SGU)
 The electronic state of the initial guess is 1-SGG.
 Generating alternative initial guess.
 Harris functional with IExCor= 1009 diagonalized for initial guess.
 ExpMin= 2.01D-01 ExpMax= 6.29D+03 ExpMxC= 9.49D+02 IAcc=1 IRadAn=         1 AccDes= 0.00D+00
 HarFok:  IExCor= 1009 AccDes= 0.00D+00 IRadAn=         1 IDoV= 1
 ScaDFX=  1.000000  1.000000  1.000000  1.000000
 FoFCou: FMM=F IPFlag=           0 FMFlag=      100000 FMFlg1=           0
         NFxFlg=           0 DoJE=T BraDBF=F KetDBF=T FulRan=T
         Omega=  0.000000  0.000000  1.000000  0.000000  0.000000 ICntrl=     500 IOpCl=  0
         NMat0=    1 NMatS0=    1 NMatT0=    0 NMatD0=    1 NMtDS0=    0 NMtDT0=    0
         I1Cent=           4 NGrid=           0.
 Petite list used in FoFCou.
 Harris En= -109.443220628396    
 Leave Link  401 at Fri Apr 25 16:31:43 2014, MaxMem=   65536000 cpu:       0.7
 (Enter /apps/gaussian/g09/l502.exe)
 Closed shell SCF:
 Requested convergence on RMS density matrix=1.00D-08 within 128 cycles.
 Requested convergence on MAX density matrix=1.00D-06.
 Requested convergence on             energy=1.00D-06.
 No special actions if energy rises.
 Using DIIS extrapolation, IDIIS=  1040.
 Integral symmetry usage will be decided dynamically.
        16064 words used for storage of precomputed grid.
 Keep R1 ints in memory in canonical form, NReq=1173875.
 IEnd=       39154 IEndB=       39154 NGot=    65536000 MDV=    65240030
 LenX=    65240030 LenY=    65238145
 Symmetry not used in FoFDir.
 MinBra= 0 MaxBra= 2 Meth= 1.
 IRaf=       0 NMat=   1 IRICut=       1 DoRegI=T DoRafI=F ISym2E= 0 JSym2E=0.
 Integral accuracy reduced to 1.0D-05 until final iterations.

 Cycle   1  Pass 0  IDiag  1:
 E= -109.479447776532    
 DIIS: error= 1.78D-02 at cycle   1 NSaved=   1.
 NSaved= 1 IEnMin= 1 EnMin= -109.479447776532     IErMin= 1 ErrMin= 1.78D-02
 ErrMax= 1.78D-02 EMaxC= 1.00D-01 BMatC= 1.20D-02 BMatP= 1.20D-02
 IDIUse=3 WtCom= 8.22D-01 WtEn= 1.78D-01
 Coeff-Com:  0.100D+01
 Coeff-En:   0.100D+01
 Coeff:      0.100D+01
 Recover alternate guess density for next cycle.
 RMSDP=3.04D-03 MaxDP=2.68D-02              OVMax= 0.00D+00

 Cycle   2  Pass 0  IDiag  1:
 E= -109.482426469132     Delta-E=       -0.002978692600 Rises=F Damp=F
 DIIS: error= 1.90D-02 at cycle   2 NSaved=   2.
 NSaved= 2 IEnMin= 2 EnMin= -109.482426469132     IErMin= 1 ErrMin= 1.78D-02
 ErrMax= 1.90D-02 EMaxC= 1.00D-01 BMatC= 7.00D-03 BMatP= 1.20D-02
 IDIUse=3 WtCom= 8.10D-01 WtEn= 1.90D-01
 Coeff-Com:  0.412D+00 0.588D+00
 Coeff-En:   0.141D+00 0.859D+00
 Coeff:      0.361D+00 0.639D+00
 Gap=     0.438 Goal=   None    Shift=    0.000
 RMSDP=1.93D-03 MaxDP=2.54D-02 DE=-2.98D-03 OVMax= 2.92D-02

 Cycle   3  Pass 0  IDiag  1:
 E= -109.487573562772     Delta-E=       -0.005147093641 Rises=F Damp=F
 DIIS: error= 3.32D-03 at cycle   3 NSaved=   3.
 NSaved= 3 IEnMin= 3 EnMin= -109.487573562772     IErMin= 3 ErrMin= 3.32D-03
 ErrMax= 3.32D-03 EMaxC= 1.00D-01 BMatC= 2.43D-04 BMatP= 7.00D-03
 IDIUse=3 WtCom= 9.67D-01 WtEn= 3.32D-02
 Coeff-Com: -0.105D-01 0.125D+00 0.886D+00
 Coeff-En:   0.000D+00 0.000D+00 0.100D+01
 Coeff:     -0.102D-01 0.121D+00 0.889D+00
 Gap=     0.426 Goal=   None    Shift=    0.000
 RMSDP=4.47D-04 MaxDP=6.93D-03 DE=-5.15D-03 OVMax= 4.52D-03

 Cycle   4  Pass 0  IDiag  1:
 E= -109.487766915975     Delta-E=       -0.000193353202 Rises=F Damp=F
 DIIS: error= 6.47D-04 at cycle   4 NSaved=   4.
 NSaved= 4 IEnMin= 4 EnMin= -109.487766915975     IErMin= 4 ErrMin= 6.47D-04
 ErrMax= 6.47D-04 EMaxC= 1.00D-01 BMatC= 9.46D-06 BMatP= 2.43D-04
 IDIUse=3 WtCom= 9.94D-01 WtEn= 6.47D-03
[...]
  27        3PZ         0.00000   0.00000   0.01201   0.00390   0.00000
  28        4S         -0.00000  -0.00000  -0.03534   0.00040   0.00000
  29        4PX         0.06006   0.00000   0.00000   0.00000   0.00319
  30        4PY         0.00000   0.06006   0.00000   0.00000   0.00000
  31        4PZ         0.00000   0.00000  -0.00669  -0.00057   0.00000
  32        5D 0        0.00000   0.00000  -0.00057   0.00020   0.00000
  33        5D+1        0.00319   0.00000   0.00000   0.00000   0.00136
  34        5D-1        0.00000   0.00319   0.00000   0.00000   0.00000
  35        5D+2        0.00000   0.00000   0.00000   0.00000   0.00000
  36        5D-2        0.00000   0.00000   0.00000   0.00000   0.00000
                          16        17        18        19        20
  16        5D-1        0.00331
  17        5D+2        0.00000   0.00000
  18        5D-2       -0.00000   0.00000   0.00000
  19 2   N  1S         -0.00000   0.00000   0.00000   0.65440
  20        2S         -0.00000   0.00000   0.00000   0.50868   0.51346
  21        2PX         0.00000   0.00000   0.00000   0.00000   0.00000
  22        2PY         0.00215   0.00000   0.00000   0.00000   0.00000
  23        2PZ         0.00000   0.00000   0.00000   0.00000   0.00000
  24        3S          0.00000   0.00000   0.00000  -0.04357  -0.08747
  25        3PX         0.00000   0.00000   0.00000   0.00000   0.00000
  26        3PY         0.00785   0.00000   0.00000   0.00000   0.00000
  27        3PZ         0.00000   0.00000   0.00000   0.00000   0.00000
  28        4S          0.00000   0.00000   0.00000  -0.02141  -0.03763
  29        4PX         0.00000   0.00000   0.00000   0.00000   0.00000
  30        4PY         0.00319   0.00000   0.00000   0.00000   0.00000
  31        4PZ         0.00000   0.00000   0.00000   0.00000   0.00000
  32        5D 0        0.00000   0.00000   0.00000   0.00000   0.00000
  33        5D+1        0.00000   0.00000   0.00000   0.00000   0.00000
  34        5D-1        0.00136   0.00000   0.00000   0.00000   0.00000
  35        5D+2        0.00000   0.00000   0.00000   0.00000   0.00000
  36        5D-2        0.00000   0.00000  -0.00000   0.00000   0.00000
                          21        22        23        24        25
  21        2PX         0.08554
  22        2PY         0.00000   0.08554
  23        2PZ         0.00000   0.00000   0.14129
  24        3S          0.00000   0.00000   0.00000   0.65164
  25        3PX         0.07989   0.00000   0.00000   0.00000   0.19409
  26        3PY         0.00000   0.07989   0.00000   0.00000   0.00000
  27        3PZ         0.00000   0.00000   0.11633   0.00000   0.00000
  28        4S          0.00000   0.00000   0.00000   0.44605   0.00000
  29        4PX         0.01864   0.00000   0.00000   0.00000   0.08598
  30        4PY         0.00000   0.01864   0.00000   0.00000   0.00000
  31        4PZ         0.00000   0.00000   0.02219   0.00000   0.00000
  32        5D 0        0.00000   0.00000   0.00000   0.00000   0.00000
  33        5D+1        0.00000   0.00000   0.00000   0.00000   0.00000
  34        5D-1        0.00000   0.00000   0.00000   0.00000   0.00000
  35        5D+2        0.00000   0.00000   0.00000   0.00000   0.00000
  36        5D-2        0.00000   0.00000   0.00000   0.00000   0.00000
                          26        27        28        29        30
  26        3PY         0.19409
  27        3PZ         0.00000   0.24960
  28        4S          0.00000   0.00000   0.71207
  29        4PX         0.00000   0.00000   0.00000   0.09228
  30        4PY         0.08598   0.00000   0.00000   0.00000   0.09228
  31        4PZ         0.00000   0.09088   0.00000   0.00000   0.00000
  32        5D 0        0.00000   0.00000   0.00000   0.00000   0.00000
  33        5D+1        0.00000   0.00000   0.00000   0.00000   0.00000
  34        5D-1        0.00000   0.00000   0.00000   0.00000   0.00000
  35        5D+2        0.00000   0.00000   0.00000   0.00000   0.00000
  36        5D-2        0.00000   0.00000   0.00000   0.00000   0.00000
                          31        32        33        34        35
  31        4PZ         0.08665
  32        5D 0        0.00000   0.00236
  33        5D+1        0.00000   0.00000   0.00331
  34        5D-1        0.00000   0.00000   0.00000   0.00331
  35        5D+2        0.00000   0.00000   0.00000   0.00000   0.00000
  36        5D-2        0.00000   0.00000   0.00000   0.00000   0.00000
                          36
  36        5D-2        0.00000
     Gross orbital populations:
                           1
   1 1   N  1S          1.09587
   2        2S          0.89424
   3        2PX         0.20379
   4        2PY         0.20379
   5        2PZ         0.33651
   6        3S          0.98759
   7        3PX         0.46547
   8        3PY         0.46547
   9        3PZ         0.62747
  10        4S          0.85749
  11        4PX         0.31289
  12        4PY         0.31289
  13        4PZ         0.18681
  14        5D 0        0.01403
  15        5D+1        0.01786
  16        5D-1        0.01786
  17        5D+2        0.00000
  18        5D-2        0.00000
  19 2   N  1S          1.09587
  20        2S          0.89424
  21        2PX         0.20379
  22        2PY         0.20379
  23        2PZ         0.33651
  24        3S          0.98759
  25        3PX         0.46547
  26        3PY         0.46547
  27        3PZ         0.62747
  28        4S          0.85749
  29        4PX         0.31289
  30        4PY         0.31289
  31        4PZ         0.18681
  32        5D 0        0.01403
  33        5D+1        0.01786
  34        5D-1        0.01786
  35        5D+2        0.00000
  36        5D-2        0.00000
          Condensed to atoms (all electrons):
              1          2
     1  N    6.488044   0.511956
     2  N    0.511956   6.488044
 Mulliken atomic charges:
              1
     1  N   -0.000000
     2  N   -0.000000
 Sum of Mulliken atomic charges =  -0.00000
 Mulliken charges with hydrogens summed into heavy atoms:
              1
     1  N   -0.000000
     2  N   -0.000000
 Sum of Mulliken charges with hydrogens summed into heavy atoms =  -0.00000
 APT atomic charges:
              1
     1  N    0.000000
     2  N    0.000000
 Sum of APT charges=   0.00000
 APT Atomic charges with hydrogens summed into heavy atoms:
              1
     1  N    0.000000
     2  N    0.000000
 Sum of APT charges=   0.00000
 Electronic spatial extent (au):  <R**2>=             38.6074
 Charge=              0.0000 electrons
 Dipole moment (field-independent basis, Debye):
    X=              0.0000    Y=             -0.0000    Z=              0.0000  Tot=              0.0000
 Quadrupole moment (field-independent basis, Debye-Ang):
   XX=            -10.0177   YY=            -10.0177   ZZ=            -11.7596
   XY=              0.0000   XZ=              0.0000   YZ=             -0.0000
 Traceless Quadrupole moment (field-independent basis, Debye-Ang):
   XX=              0.5807   YY=              0.5807   ZZ=             -1.1613
   XY=              0.0000   XZ=              0.0000   YZ=             -0.0000
 Octapole moment (field-independent basis, Debye-Ang**2):
  XXX=             -0.0000  YYY=              0.0000  ZZZ=              0.0000  XYY=             -0.0000
  XXY=              0.0000  XXZ=              0.0000  XZZ=             -0.0000  YZZ=              0.0000
  YYZ=              0.0000  XYZ=             -0.0000
 Hexadecapole moment (field-independent basis, Debye-Ang**3):
 XXXX=             -8.0451 YYYY=             -8.0451 ZZZZ=            -30.8961 XXXY=              0.0000
 XXXZ=              0.0000 YYYX=              0.0000 YYYZ=             -0.0000 ZZZX=              0.0000
 ZZZY=             -0.0000 XXYY=             -2.6817 XXZZ=             -6.0937 YYZZ=             -6.0937
 XXYZ=             -0.0000 YYXZ=              0.0000 ZZXY=              0.0000
 N-N= 2.369405867264D+01 E-N=-3.040633297778D+02  KE= 1.092779301207D+02
 Symmetry AG   KE= 5.348536136884D+01
 Symmetry B1G  KE= 1.284719290778D-34
 Symmetry B2G  KE=-7.375367824508D-33
 Symmetry B3G  KE= 8.447014052893D-32
 Symmetry AU   KE= 4.328619591454D-34
 Symmetry B1U  KE= 4.884002414099D+01
 Symmetry B2U  KE= 3.476272305417D+00
 Symmetry B3U  KE= 3.476272305417D+00
 Orbital energies and kinetic energies (alpha):
                                 1                 2
   1 (SGG)--O                -14.486763         22.042853
   2 (SGU)--O                -14.485100         22.036485
   3 (SGG)--O                 -1.138111          2.629544
   4 (SGU)--O                 -0.567650          2.383527
   5 (PIU)--O                 -0.487018          1.738136
   6 (PIU)--O                 -0.487018          1.738136
   7 (SGG)--O                 -0.438238          2.070284
   8 (PIG)--V                 -0.013485          2.080695
   9 (PIG)--V                 -0.013485          2.080695
  10 (SGU)--V                  0.392895          1.499256
  11 (PIU)--V                  0.506881          1.644675
  12 (PIU)--V                  0.506881          1.644675
  13 (SGG)--V                  0.515291          1.265582
  14 (SGG)--V                  0.616737          2.971507
  15 (PIG)--V                  0.662579          2.091727
  16 (PIG)--V                  0.662579          2.091727
  17 (SGU)--V                  0.766623          3.087408
  18 (SGU)--V                  1.092429          4.212032
  19 (DLTG)--V                 1.681783          2.973939
  20 (DLTG)--V                 1.681792          2.973939
  21 (PIU)--V                  1.707033          3.251755
  22 (PIU)--V                  1.707033          3.251755
  23 (DLTU)--V                 2.180633          3.490363
  24 (DLTU)--V                 2.180643          3.490363
  25 (SGG)--V                  2.422300          4.033150
  26 (PIG)--V                  2.828110          4.631971
  27 (PIG)--V                  2.828110          4.631971
  28 (SGU)--V                  3.078632          6.657988
  29 (PIU)--V                  3.552320          8.827174
  30 (PIU)--V                  3.552320          8.827174
  31 (PIG)--V                  3.900558          8.669987
  32 (PIG)--V                  3.900558          8.669987
  33 (SGG)--V                  4.119444          9.689875
  34 (SGU)--V                  4.293293          8.853202
  35 (SGG)--V                 34.888017         88.982462
  36 (SGU)--V                 36.280889         89.224495
 Total kinetic energy from orbitals= 1.092779301207D+02
  Exact polarizability:   6.113   0.000   6.113  -0.000   0.000  13.960
 Approx polarizability:   7.841   0.000   7.841  -0.000   0.000  25.695
 No NMR shielding tensors so no spin-rotation constants.
 Leave Link  601 at Fri Apr 25 16:31:47 2014, MaxMem=   65536000 cpu:       0.8
 (Enter /apps/gaussian/g09/l701.exe)
 Compute integral second derivatives.
 ... and contract with generalized density number  0.
 Leave Link  701 at Fri Apr 25 16:31:48 2014, MaxMem=   65536000 cpu:       0.5
 (Enter /apps/gaussian/g09/l702.exe)
 L702 exits ... SP integral derivatives will be done elsewhere.
 Leave Link  702 at Fri Apr 25 16:31:48 2014, MaxMem=   65536000 cpu:       0.1
 (Enter /apps/gaussian/g09/l703.exe)
 Compute integral second derivatives, UseDBF=F ICtDFT=           0.
 Integral derivatives from FoFDir, PRISM(SPDF).
 Calling FoFJK, ICntrl=    100127 FMM=F ISym2X=1 I1Cent= 0 IOpClX= 0 NMat=1 NMatS=1 NMatT=0.
 FoFCou: FMM=F IPFlag=           0 FMFlag=      100000 FMFlg1=         800
         NFxFlg=           0 DoJE=F BraDBF=F KetDBF=F FulRan=T
         Omega=  0.000000  0.000000  1.000000  0.000000  0.000000 ICntrl=  100127 IOpCl=  0
         NMat0=    1 NMatS0=    1 NMatT0=    0 NMatD0=    1 NMtDS0=    0 NMtDT0=    0
         I1Cent=           0 NGrid=           0.
 Petite list used in FoFCou.
 Leave Link  703 at Fri Apr 25 16:31:48 2014, MaxMem=   65536000 cpu:       2.0
 (Enter /apps/gaussian/g09/l716.exe)
 Dipole        = 9.86076132D-31 4.18889763D-33-1.57827474D-16
 Polarizability= 6.11343652D+00 2.33901951D-12 6.11343652D+00
                -4.88924459D-12 1.23786949D-11 1.39604792D+01
 Full mass-weighted force constant matrix:
 Low frequencies ---   -0.0011   -0.0011   -0.0005   29.6129   29.6129 2464.2481
 Diagonal vibrational polarizability:
        0.0000000       0.0000000       0.0000000
 Harmonic frequencies (cm**-1), IR intensities (KM/Mole), Raman scattering
 activities (A**4/AMU), depolarization ratios for plane and unpolarized
 incident light, reduced masses (AMU), force constants (mDyne/A),
 and normal coordinates:
                     1
                    SGG
 Frequencies --  2464.2481
 Red. masses --    14.0031
 Frc consts  --    50.1005
 IR Inten    --     0.0000
  Atom  AN      X      Y      Z
     1   7    -0.00   0.00   0.71
     2   7     0.00   0.00  -0.71

 -------------------
 - Thermochemistry -
 -------------------
 Temperature   298.150 Kelvin.  Pressure   1.00000 Atm.
 Atom     1 has atomic number  7 and mass  14.00307
 Atom     2 has atomic number  7 and mass  14.00307
 Molecular mass:    28.00615 amu.
 Principal axes and moments of inertia in atomic units:
                           1         2         3
     Eigenvalues --     0.00000  29.94378  29.94378
           X           -0.00000   1.00000   0.00000
           Y            0.00000   0.00000   1.00000
           Z            1.00000   0.00000   0.00000
 This molecule is a prolate symmetric top.
 Rotational symmetry number  2.
 Rotational temperature (Kelvin)      2.89255
 Rotational constant (GHZ):          60.270987
 Zero-point vibrational energy      14739.5 (Joules/Mol)
                                    3.52282 (Kcal/Mol)
 Vibrational temperatures:   3545.50
          (Kelvin)
 
 Zero-point correction=                           0.005614 (Hartree/Particle)
 Thermal correction to Energy=                    0.007975
 Thermal correction to Enthalpy=                  0.008919
 Thermal correction to Gibbs Free Energy=        -0.012817
 Sum of electronic and zero-point Energies=           -109.482241
 Sum of electronic and thermal Energies=              -109.479881
 Sum of electronic and thermal Enthalpies=            -109.478936
 Sum of electronic and thermal Free Energies=         -109.500672
 
                     E (Thermal)             CV                S
                      KCal/Mol        Cal/Mol-Kelvin    Cal/Mol-Kelvin
 Total                    5.004              4.970             45.746
 Electronic               0.000              0.000              0.000
 Translational            0.889              2.981             35.924
 Rotational               0.592              1.987              9.821
 Vibrational              3.523              0.002              0.000
                       Q            Log10(Q)             Ln(Q)
 Total Bot       0.785635D+06          5.895221         13.574248
 Total V=0       0.300236D+09          8.477463         19.520079
 Vib (Bot)       0.261675D-02         -2.582239         -5.945824
 Vib (V=0)       0.100001D+01          0.000003          0.000007
 Electronic      0.100000D+01          0.000000          0.000000
 Translational   0.582553D+07          6.765335         15.577760
 Rotational      0.515376D+02          1.712124          3.942312
 ***** Axes restored to original set *****
 -------------------------------------------------------------------
 Center     Atomic                   Forces (Hartrees/Bohr)
 Number     Number              X              Y              Z
 -------------------------------------------------------------------
      1        7           0.000000000   -0.000000000    0.000080800
      2        7          -0.000000000    0.000000000   -0.000080800
 -------------------------------------------------------------------
 Cartesian Forces:  Max     0.000080800 RMS     0.000046650
 Force constants in Cartesian coordinates: 
                1             2             3             4             5 
      1  0.232351D-03
      2  0.000000D+00  0.232351D-03
      3  0.000000D+00  0.000000D+00  0.160899D+01
      4 -0.232351D-03  0.000000D+00  0.000000D+00  0.232351D-03
      5  0.000000D+00 -0.232351D-03  0.000000D+00  0.000000D+00  0.232351D-03
      6  0.000000D+00  0.000000D+00 -0.160899D+01  0.000000D+00  0.000000D+00
                6 
      6  0.160899D+01
 Force constants in internal coordinates: 
                1 
      1  0.160899D+01
 Leave Link  716 at Fri Apr 25 16:31:48 2014, MaxMem=   65536000 cpu:       0.1
 (Enter /apps/gaussian/g09/l103.exe)

 GradGradGradGradGradGradGradGradGradGradGradGradGradGradGradGradGradGrad
 Berny optimization.
 Internal  Forces:  Max     0.000080800 RMS     0.000080800
 Search for a local minimum.
 Step number   1 out of a maximum of    2
 All quantities printed in internal units (Hartrees-Bohrs-Radians)
 Second derivative matrix not updated -- analytic derivatives used.
 The second derivative matrix:
                          R1
           R1           1.60899
     Eigenvalues ---    1.60899
 Angle between quadratic step and forces=   0.00 degrees.
 Linear search not attempted -- first point.
 Iteration  1 RMS(Cart)=  0.00003551 RMS(Int)=  0.00000000
 Iteration  2 RMS(Cart)=  0.00000000 RMS(Int)=  0.00000000
 ClnCor:  largest displacement from symmetrization is 1.54D-21 for atom     1.
 Variable       Old X    -DE/DX   Delta X   Delta X   Delta X     New X
                                 (Linear)    (Quad)   (Total)
    R1        2.06803  -0.00008   0.00000  -0.00005  -0.00005   2.06798
         Item               Value     Threshold  Converged?
 Maximum Force            0.000081     0.000450     YES
 RMS     Force            0.000081     0.000300     YES
 Maximum Displacement     0.000025     0.001800     YES
 RMS     Displacement     0.000036     0.001200     YES
 Predicted change in Energy=-2.028815D-09
 Optimization completed.
    -- Stationary point found.
                           ----------------------------
                           !   Optimized Parameters   !
                           ! (Angstroms and Degrees)  !
 --------------------------                            --------------------------
 ! Name  Definition              Value          Derivative Info.                !
 --------------------------------------------------------------------------------
 ! R1    R(1,2)                  1.0944         -DE/DX =   -0.0001              !
 --------------------------------------------------------------------------------
 GradGradGradGradGradGradGradGradGradGradGradGradGradGradGradGradGradGrad

 Leave Link  103 at Fri Apr 25 16:31:48 2014, MaxMem=   65536000 cpu:       0.0
 (Enter /apps/gaussian/g09/l9999.exe)

 Test job not archived.
 1\1\GINC-ROMEO149\Freq\RM06\6-311G(d,p)\N2\ROOT\25-Apr-2014\0\\#P Geom
 =AllCheck Guess=TCheck SCRF=Check Test GenChk RM06/6-311G(d,p) Freq\\p
 roduct 1\\0,1\N,0.,0.,0.0528230984\N,0.,0.,1.1471769016\\Version=AM64L
 -G09RevA.02\State=1-SGG\HF=-109.487855\RMSD=1.954e-10\RMSF=4.665e-05\Z
 eroPoint=0.005614\Thermal=0.0079745\Dipole=0.,0.,0.\DipoleDeriv=0.,0.,
 0.,0.,0.,0.,0.,0.,0.,0.,0.,0.,0.,0.,0.,0.,0.,0.\Polar=6.1134365,0.,6.1
 134365,0.,0.,13.9604792\PG=D*H [C*(N1.N1)]\NImag=0\\0.00023235,0.,0.00
 023235,0.,0.,1.60899126,-0.00023235,0.,0.,0.00023235,0.,-0.00023235,0.
 ,0.,0.00023235,0.,0.,-1.60899126,0.,0.,1.60899126\\0.,0.,-0.00008080,0
 .,0.,0.00008080\\\@


 LOVE IS BLIND, THAT'S WHY ALL THE WORLD LOVES A LOUVER.
 Job cpu time:  0 days  0 hours  0 minutes  9.2 seconds.
 File lengths (MBytes):  RWF=      5 Int=      0 D2E=      0 Chk=      1 Scr=      1
 Normal termination of Gaussian 09 at Fri Apr 25 16:31:48 2014.
************
total 232
drwxrwxr-x 2 henon henon   4096 25 avril 16:31 .
drwxrwxr-x 3 henon henon   4096 25 avril 16:31 ..
-rw-r--r-- 1 henon henon    113 25 avril 16:31 n2.inp
-rw-rw-r-- 1 henon henon 224623 25 avril 16:31 n2.out
Run on 4 cores
romeo149
************
