----- GAMESS execution script 'rungms' -----
This job is running on host iMac-de-Eric-28321.local
under operating system Darwin at Mer 1 mai 2013 18:06:44 CEST
Available scratch disk space (Kbyte units) at beginning of the job is
Filesystem   1024-blocks      Used Available Capacity  Mounted on
/dev/disk0s2   244277768 228643652  15378116    94%    /
GAMESS temporary binary files will be written to ./
GAMESS supplementary output files will be written to ./
Copying input file ex.inp to your run's scratch directory...
cp ex.inp .//ex.F05
unset echo
/usr/local/lib/gamess/ddikick.x /usr/local/lib/gamess/gamess.May12012R2.x ex -ddi 1 1 localhost -scr ./

 Distributed Data Interface kickoff program.
 Initiating 1 compute processes on 1 nodes to run the following command:
 /usr/local/lib/gamess/gamess.May12012R2.x ex 

          ******************************************************
          *         GAMESS VERSION =  1 MAY 2012 (R2)          *
          *             FROM IOWA STATE UNIVERSITY             *
          * M.W.SCHMIDT, K.K.BALDRIDGE, J.A.BOATZ, S.T.ELBERT, *
          *   M.S.GORDON, J.H.JENSEN, S.KOSEKI, N.MATSUNAGA,   *
          *          K.A.NGUYEN, S.J.SU, T.L.WINDUS,           *
          *       TOGETHER WITH M.DUPUIS, J.A.MONTGOMERY       *
          *         J.COMPUT.CHEM.  14, 1347-1363(1993)        *
          **************** 64 BIT LINUX VERSION ****************

  SINCE 1993, STUDENTS AND POSTDOCS WORKING AT IOWA STATE UNIVERSITY
  AND ALSO IN THEIR VARIOUS JOBS AFTER LEAVING ISU HAVE MADE IMPORTANT
  CONTRIBUTIONS TO THE CODE:
     IVANA ADAMOVIC, CHRISTINE AIKENS, YURI ALEXEEV, POOJA ARORA,
     ANDREY ASADCHEV, ROB BELL, PRADIPTA BANDYOPADHYAY, JONATHAN BENTZ,
     BRETT BODE, GALINA CHABAN, WEI CHEN, CHEOL HO CHOI, PAUL DAY,
     ALBERT DEFUSCO, TIM DUDLEY, DMITRI FEDOROV, GRAHAM FLETCHER,
     MARK FREITAG, KURT GLAESEMANN, DAN KEMP, GRANT MERRILL,
     NORIYUKI MINEZAWA, JONATHAN MULLIN, TAKESHI NAGATA,
     SEAN NEDD, HEATHER NETZLOFF, BOSILJKA NJEGIC, RYAN OLSON, MIKE PAK,
     JIM SHOEMAKER, LYUDMILA SLIPCHENKO, SAROM SOK, JIE SONG,
     TETSUYA TAKETSUGU, SIMON WEBB, SOOHAENG YOO, FEDERICO ZAHARIEV

  ADDITIONAL CODE HAS BEEN PROVIDED BY COLLABORATORS IN OTHER GROUPS:
     IOWA STATE UNIVERSITY:
          JOE IVANIC, LAIMUTIS BYTAUTAS, KLAUS RUEDENBERG
     UNIVERSITY OF TOKYO: KIMIHIKO HIRAO, TAKAHITO NAKAJIMA,
          TAKAO TSUNEDA, MUNEAKI KAMIYA, SUSUMU YANAGISAWA,
          KIYOSHI YAGI, MAHITO CHIBA, SEIKEN TOKURA, NAOAKI KAWAKAMI
     UNIVERSITY OF AARHUS: FRANK JENSEN
     UNIVERSITY OF IOWA: VISVALDAS KAIRYS, HUI LI
     NATIONAL INST. OF STANDARDS AND TECHNOLOGY: WALT STEVENS, DAVID GARMER
     UNIVERSITY OF PISA: BENEDETTA MENNUCCI, JACOPO TOMASI
     UNIVERSITY OF MEMPHIS: HENRY KURTZ, PRAKASHAN KORAMBATH
     UNIVERSITY OF ALBERTA: TOBY ZENG, MARIUSZ KLOBUKOWSKI
     UNIVERSITY OF NEW ENGLAND: MARK SPACKMAN
     MIE UNIVERSITY: HIROAKI UMEDA
     MICHIGAN STATE UNIVERSITY:
          KAROL KOWALSKI, MARTA WLOCH, JEFFREY GOUR, JESSE LUTZ, PIOTR PIECUCH
     UNIVERSITY OF SILESIA: MONIKA MUSIAL, STANISLAW KUCHARSKI
     FACULTES UNIVERSITAIRES NOTRE-DAME DE LA PAIX:
          OLIVIER QUINET, BENOIT CHAMPAGNE
     UNIVERSITY OF CALIFORNIA - SANTA BARBARA: BERNARD KIRTMAN
     INSTITUTE FOR MOLECULAR SCIENCE:
          KAZUYA ISHIMURA, MICHIO KATOUDA, AND SHIGERU NAGASE
     UNIVERSITY OF NOTRE DAME: DAN CHIPMAN
     KYUSHU UNIVERSITY:
          HARUYUKI NAKANO,
          FENG LONG GU, JACEK KORCHOWIEC, MARCIN MAKOWSKI, AND YURIKO AOKI,
          HIROTOSHI MORI AND EISAKU MIYOSHI
     PENNSYLVANIA STATE UNIVERSITY:
          TZVETELIN IORDANOV, CHET SWALINA, JONATHAN SKONE,
          SHARON HAMMES-SCHIFFER
     WASEDA UNIVERSITY:
          MASATO KOBAYASHI, TOMOKO AKAMA, TSUGUKI TOUMA,
          TAKESHI YOSHIKAWA, YASUHIRO IKABATA, HIROMI NAKAI
     UNIVERSITY OF NEBRASKA:
          PEIFENG SU, DEJUN SI, NANDUN THELLAMUREGE, YALI WANG, HUI LI
     UNIVERSITY OF ZURICH:
          ROBERTO PEVERATI, KIM BALDRIDGE
     N. COPERNICUS UNIVERSITY AND JACKSON STATE UNIVERSITY:
          MARIA BARYSZ

 EXECUTION OF GAMESS BEGUN Wed May  1 18:06:44 2013

            ECHO OF THE FIRST FEW INPUT CARDS -
 INPUT CARD> $CONTRL SCFTYP=RHF RUNTYP=HESSIAN DFTTYP=B3LYP  $END                           
 INPUT CARD> $BASIS GBASIS=N31 NGAUSS=6 NDFUNC=1 NPFUNC=1 $END                              
 INPUT CARD> $DATA                                                                          
 INPUT CARD>acetonitrile geometry and frequencies using RHF with 6-31G(d,p) and MP2         
 INPUT CARD>C1                                                                              
 INPUT CARD>C   6.0     0.00    0.00     0.00                                               
 INPUT CARD>H   1.0     0.99    0.33    -0.38                                               
 INPUT CARD>C   6.0     0.00   -0.00     1.46                                               
 INPUT CARD>H   1.0    -0.21   -1.02    -0.37                                               
 INPUT CARD>H   1.0    -0.78    0.70    -0.37                                               
 INPUT CARD>N   7.0    -0.00    0.00     2.62                                               
 INPUT CARD> $END                                                                           
    1000000 WORDS OF MEMORY AVAILABLE

     BASIS OPTIONS
     -------------
     GBASIS=N31          IGAUSS=       6      POLAR=POPN31  
     NDFUNC=       1     NFFUNC=       0     DIFFSP=       F
     NPFUNC=       1      DIFFS=       F     BASNAM=        


     RUN TITLE
     ---------
 acetonitrile geometry and frequencies using RHF with 6-31G(d,p) and MP2         

 THE POINT GROUP OF THE MOLECULE IS C1      
 THE ORDER OF THE PRINCIPAL AXIS IS     0

 ATOM      ATOMIC                      COORDINATES (BOHR)
           CHARGE         X                   Y                   Z
 C           6.0     0.0000000000        0.0000000000        0.0000000000
 H           1.0     1.8708287278        0.6236095759       -0.7180958753
 C           6.0     0.0000000000        0.0000000000        2.7589999421
 H           1.0    -0.3968424574       -1.9275205075       -0.6991986155
 H           1.0    -1.4739862704        1.3228081914       -0.6991986155
 N           7.0     0.0000000000        0.0000000000        4.9510820878

          INTERNUCLEAR DISTANCES (ANGS.)
          ------------------------------

                1 C          2 H          3 C          4 H          5 H     

   1 C       0.0000000    1.1105854 *  1.4600000 *  1.1051697 *  1.1114405 *
   2 H       1.1105854 *  0.0000000    2.1153250 *  1.8062669 *  1.8082865 *
   3 C       1.4600000 *  2.1153250 *  0.0000000    2.1055641 *  2.1088623 *
   4 H       1.1051697 *  1.8062669 *  2.1055641 *  0.0000000    1.8119879 *
   5 H       1.1114405 *  1.8082865 *  2.1088623 *  1.8119879 *  0.0000000  
   6 N       2.6200000 *  3.1763186    1.1600000 *  3.1661649    3.1683592  

                6 N     

   1 C       2.6200000 *
   2 H       3.1763186  
   3 C       1.1600000 *
   4 H       3.1661649  
   5 H       3.1683592  
   6 N       0.0000000  

  * ... LESS THAN  3.000


     ATOMIC BASIS SET
     ----------------
 THE CONTRACTED PRIMITIVE FUNCTIONS HAVE BEEN UNNORMALIZED
 THE CONTRACTED BASIS FUNCTIONS ARE NOW NORMALIZED TO UNITY

  SHELL TYPE  PRIMITIVE        EXPONENT          CONTRACTION COEFFICIENT(S)

 C         

      1   S       1          3047.5248800    0.001834737132
      1   S       2           457.3695180    0.014037322813
      1   S       3           103.9486850    0.068842622264
      1   S       4            29.2101553    0.232184443216
      1   S       5             9.2866630    0.467941348435
      1   S       6             3.1639270    0.362311985337

      2   L       7             7.8682723   -0.119332419775    0.068999066591
      2   L       8             1.8812885   -0.160854151696    0.316423960957
      2   L       9             0.5442493    1.143456437840    0.744308290898

      3   L      10             0.1687145    1.000000000000    1.000000000000

      4   D      11             0.8000000    1.000000000000

 H         

      5   S      12            18.7311370    0.033494604338
      5   S      13             2.8253944    0.234726953484
      5   S      14             0.6401217    0.813757326146

      6   S      15             0.1612778    1.000000000000

      7   P      16             1.1000000    1.000000000000

 C         

      8   S      17          3047.5248800    0.001834737132
      8   S      18           457.3695180    0.014037322813
      8   S      19           103.9486850    0.068842622264
      8   S      20            29.2101553    0.232184443216
      8   S      21             9.2866630    0.467941348435
      8   S      22             3.1639270    0.362311985337

      9   L      23             7.8682723   -0.119332419775    0.068999066591
      9   L      24             1.8812885   -0.160854151696    0.316423960957
      9   L      25             0.5442493    1.143456437840    0.744308290898

     10   L      26             0.1687145    1.000000000000    1.000000000000

     11   D      27             0.8000000    1.000000000000

 H         

     12   S      28            18.7311370    0.033494604338
     12   S      29             2.8253944    0.234726953484
     12   S      30             0.6401217    0.813757326146

     13   S      31             0.1612778    1.000000000000

     14   P      32             1.1000000    1.000000000000

 H         

     15   S      33            18.7311370    0.033494604338
     15   S      34             2.8253944    0.234726953484
     15   S      35             0.6401217    0.813757326146

     16   S      36             0.1612778    1.000000000000

     17   P      37             1.1000000    1.000000000000

 N         

     18   S      38          4173.5114600    0.001834772160
     18   S      39           627.4579110    0.013994627002
     18   S      40           142.9020930    0.068586551812
     18   S      41            40.2343293    0.232240873040
     18   S      42            12.8202129    0.469069948082
     18   S      43             4.3904370    0.360455199063

     19   L      44            11.6263619   -0.114961181702    0.067579743878
     19   L      45             2.7162798   -0.169117478561    0.323907295893
     19   L      46             0.7722184    1.145851947027    0.740895139755

     20   L      47             0.2120315    1.000000000000    1.000000000000

     21   D      48             0.8000000    1.000000000000

 TOTAL NUMBER OF BASIS SET SHELLS             =   21
 NUMBER OF CARTESIAN GAUSSIAN BASIS FUNCTIONS =   60
 NUMBER OF ELECTRONS                          =   22
 CHARGE OF MOLECULE                           =    0
 SPIN MULTIPLICITY                            =    1
 NUMBER OF OCCUPIED ORBITALS (ALPHA)          =   11
 NUMBER OF OCCUPIED ORBITALS (BETA )          =   11
 TOTAL NUMBER OF ATOMS                        =    6
 THE NUCLEAR REPULSION ENERGY IS       58.1770444511

     LEBEDEV GRID-BASED DFT OPTIONS
     ------------------------------
     DFTTYP=B3LYP   
     NRAD  =      96     NLEB  =     302
     NRAD0 =      96     NLEB0 =     302
     SWOFF =    5.00E-03 (PURE SCF -> DFT)
     SWITCH=    3.00E-04 (COARSE -> TIGHT GRID)
     THRESH=    0.00E+00 GTHRE=    1.00E+00

 GRIMME'S EMPIRICAL DISPERSION CORRECTION= F

     $CONTRL OPTIONS
     ---------------
 SCFTYP=RHF          RUNTYP=HESSIAN      EXETYP=RUN     
 MPLEVL=       0     CITYP =NONE         CCTYP =NONE         VBTYP =NONE    
 DFTTYP=B3LYP        TDDFT =NONE    
 MULT  =       1     ICHARG=       0     NZVAR =       0     COORD =UNIQUE  
 PP    =NONE         RELWFN=NONE         LOCAL =NONE         NUMGRD=       F
 ISPHER=      -1     NOSYM =       0     MAXIT =      30     UNITS =ANGS    
 PLTORB=       F     MOLPLT=       F     AIMPAC=       F     FRIEND=        
 NPRINT=       7     IREST =       0     GEOM  =INPUT   
 NORMF =       0     NORMP =       0     ITOL  =      20     ICUT  =       9
 INTTYP=BEST         GRDTYP=BEST         QMTTOL= 1.0E-06

     $SYSTEM OPTIONS
     ---------------
  REPLICATED MEMORY=     1000000 WORDS (ON EVERY NODE).
 DISTRIBUTED MEMDDI=           0 MILLION WORDS IN AGGREGATE,
 MEMDDI DISTRIBUTED OVER   1 PROCESSORS IS           0 WORDS/PROCESSOR.
 TOTAL MEMORY REQUESTED ON EACH PROCESSOR=     1000000 WORDS.
 TIMLIM=      525600.00 MINUTES, OR     365.0 DAYS.
 PARALL= F  BALTYP=  DLB     KDIAG=    0  COREFL= F
 MXSEQ2=     300 MXSEQ3=     150

          ----------------
          PROPERTIES INPUT
          ----------------

     MOMENTS            FIELD           POTENTIAL          DENSITY
 IEMOM =       1   IEFLD =       0   IEPOT =       0   IEDEN =       0
 WHERE =COMASS     WHERE =NUCLEI     WHERE =NUCLEI     WHERE =NUCLEI  
 OUTPUT=BOTH       OUTPUT=BOTH       OUTPUT=BOTH       OUTPUT=BOTH    
 IEMINT=       0   IEFINT=       0                     IEDINT=       0
                                                       MORB  =       0
          EXTRAPOLATION IN EFFECT
          DIIS IN EFFECT
 ORBITAL PRINTING OPTION: NPREO=     1    60     2     1

     -------------------------------
     INTEGRAL TRANSFORMATION OPTIONS
     -------------------------------
     NWORD  =            0
     CUTOFF = 1.0E-09     MPTRAN =       0
     DIRTRF =       F     AOINTS =DUP     

          ----------------------
          INTEGRAL INPUT OPTIONS
          ----------------------
 NOPK  =       1 NORDER=       0 SCHWRZ=       T

     ------------------------------------------
     THE POINT GROUP IS C1 , NAXIS= 0, ORDER= 1
     ------------------------------------------

     DIMENSIONS OF THE SYMMETRY SUBSPACES ARE
 A   =   60

 ..... DONE SETTING UP THE RUN .....
 STEP CPU TIME =     0.00 TOTAL CPU TIME =        0.0 (    0.0 MIN)
 TOTAL WALL CLOCK TIME=        0.0 SECONDS, CPU UTILIZATION IS 100.00%

     ---------------------------------
     HESSIAN MATRIX CONTROL PARAMETERS
     ---------------------------------
     METHOD=SEMINUM    NVIB  =       2   VIBSIZ= 0.01000
     RDHESS=       F   PURIFY=       F   PRTIFC=       F
     VIBANL=       T   DECOMP=       F   PROJCT=       F
     SCLFAC= 1.00000   PRTSCN=       F   NPRT  =       0
     PULCOR=       F   NPUN  =       0   REDOVB=       T
     THERMOCHEMISTRY WILL BE PRINTED FOR    1 TEMPERATURES:
      298.15000
1   ATOM  0
                                        -------------------
   COORD  0                             NUCLEAR COORDINATES
                                        -------------------
     VIB  0

                       ATOM             X              Y              Z

                 1  C                0.000000       0.000000       0.000000
                 2  H                1.870829       0.623610      -0.718096
                 3  C                0.000000       0.000000       2.759000
                 4  H               -0.396842      -1.927521      -0.699199
                 5  H               -1.473986       1.322808      -0.699199
                 6  N                0.000000       0.000000       4.951082

          ********************
          1 ELECTRON INTEGRALS
          ********************
 ...... END OF ONE-ELECTRON INTEGRALS ......
 STEP CPU TIME =     0.00 TOTAL CPU TIME =        0.0 (    0.0 MIN)
 TOTAL WALL CLOCK TIME=        0.0 SECONDS, CPU UTILIZATION IS 100.00%

          -------------
          GUESS OPTIONS
          -------------
          GUESS =HUCKEL            NORB  =       0          NORDER=       0
          MIX   =       F          PRTMO =       F          PUNMO =       F
          TOLZ  = 1.0E-08          TOLE  = 1.0E-05
          SYMDEN=       F          PURIFY=       F

 INITIAL GUESS ORBITALS GENERATED BY HUCKEL   ROUTINE.
 HUCKEL GUESS REQUIRES     32004 WORDS.

 SYMMETRIES FOR INITIAL GUESS ORBITALS FOLLOW.   BOTH SET(S).
    11 ORBITALS ARE OCCUPIED (    3 CORE ORBITALS).
     4=A        5=A        6=A        7=A        8=A        9=A       10=A   
    11=A       12=A       13=A       14=A       15=A       16=A       17=A   
    18=A       19=A       20=A       21=A   
 ...... END OF INITIAL ORBITAL SELECTION ......
 STEP CPU TIME =     0.00 TOTAL CPU TIME =        0.0 (    0.0 MIN)
 TOTAL WALL CLOCK TIME=        0.0 SECONDS, CPU UTILIZATION IS   0.00%

                    ----------------------
                    AO INTEGRAL TECHNOLOGY
                    ----------------------
     S,P,L SHELL ROTATED AXIS INTEGRALS, REPROGRAMMED BY
        KAZUYA ISHIMURA (IMS) AND JOSE SIERRA (SYNSTAR).
     S,P,D,L SHELL ROTATED AXIS INTEGRALS PROGRAMMED BY
        KAZUYA ISHIMURA (INSTITUTE FOR MOLECULAR SCIENCE).
     S,P,D,F,G SHELL TO TOTAL QUARTET ANGULAR MOMENTUM SUM 5,
        ERIC PROGRAM BY GRAHAM FLETCHER (ELORET AND NASA ADVANCED
        SUPERCOMPUTING DIVISION, AMES RESEARCH CENTER).
     S,P,D,F,G,L SHELL GENERAL RYS QUADRATURE PROGRAMMED BY
        MICHEL DUPUIS (PACIFIC NORTHWEST NATIONAL LABORATORY).

          --------------------
          2 ELECTRON INTEGRALS
          --------------------

 THE -PK- OPTION IS OFF, THE INTEGRALS ARE NOT IN SUPERMATRIX FORM.
 STORING   15000 INTEGRALS/RECORD ON DISK, USING 12 BYTES/INTEGRAL.
 TWO ELECTRON INTEGRAL EVALUATION REQUIRES   90627 WORDS OF MEMORY.
 SCHWARZ INEQUALITY OVERHEAD:      1829 INTEGRALS, T=        0.00
 II,JST,KST,LST =  1  1  1  1 NREC =         1 INTLOC =    1
 II,JST,KST,LST =  2  1  1  1 NREC =         1 INTLOC =    2
 II,JST,KST,LST =  3  1  1  1 NREC =         1 INTLOC =   34
 II,JST,KST,LST =  4  1  1  1 NREC =         1 INTLOC =  214
 II,JST,KST,LST =  5  1  1  1 NREC =         1 INTLOC = 1189
 II,JST,KST,LST =  6  1  1  1 NREC =         1 INTLOC = 3245
 II,JST,KST,LST =  7  1  1  1 NREC =         1 INTLOC = 5710
 II,JST,KST,LST =  8  1  1  1 NREC =         2 INTLOC =  997
 II,JST,KST,LST =  9  1  1  1 NREC =         2 INTLOC = 4206
 II,JST,KST,LST = 10  1  1  1 NREC =         3 INTLOC = 6251
 II,JST,KST,LST = 11  1  1  1 NREC =         5 INTLOC = 1631
 II,JST,KST,LST = 12  1  1  1 NREC =         8 INTLOC =13883
 II,JST,KST,LST = 13  1  1  1 NREC =        10 INTLOC = 7213
 II,JST,KST,LST = 14  1  1  1 NREC =        12 INTLOC = 2555
 II,JST,KST,LST = 15  1  1  1 NREC =        18 INTLOC = 1417
 II,JST,KST,LST = 16  1  1  1 NREC =        20 INTLOC = 5840
 II,JST,KST,LST = 17  1  1  1 NREC =        22 INTLOC =12851
 II,JST,KST,LST = 18  1  1  1 NREC =        31 INTLOC = 4948
 II,JST,KST,LST = 19  1  1  1 NREC =        32 INTLOC = 9277
 II,JST,KST,LST = 20  1  1  1 NREC =        42 INTLOC =11604
 II,JST,KST,LST = 21  1  1  1 NREC =        56 INTLOC = 7152
 SCHWARZ INEQUALITY TEST SKIPPED        1886 INTEGRAL BLOCKS.
 TOTAL NUMBER OF NONZERO TWO-ELECTRON INTEGRALS =             1178617
         79 INTEGRAL RECORDS WERE STORED ON DISK FILE  8.
  ...... END OF TWO-ELECTRON INTEGRALS .....
 STEP CPU TIME =     0.11 TOTAL CPU TIME =        0.1 (    0.0 MIN)
 TOTAL WALL CLOCK TIME=        0.1 SECONDS, CPU UTILIZATION IS 100.00%

          --------------------------
             R-B3LYP SCF CALCULATION
          --------------------------

     NUCLEAR ENERGY =        58.1770444511
     MAXIT =   30     NPUNCH=    2
     EXTRAP=T  DAMP=F  SHIFT=F  RSTRCT=F  DIIS=T  DEM=F  SOSCF=F
         DENSITY MATRIX CONVERGENCE THRESHOLD=  1.00E-05
     COARSE -> FINE DFT GRID SWITCH THRESHOLD=  3.00E-04 (SWITCH IN $DFT)
                   HF -> DFT SWITCH THRESHOLD=  5.00E-03 (SWOFF IN $DFT)
     MEMORY REQUIRED FOR RHF ITERS=    283272 WORDS.

     EXCHANGE FUNCTIONAL   =B88&HFX   
     CORRELATION FUNCTIONAL=LYP88&VWN5
     DFT THRESHOLD         =.575E-08
 FOR AN EULER-MACLAURIN QUADRATURE USING  96 RADIAL POINTS:
 SMALLEST GAUSSIAN PRIMITIVE EXPONENT=        0.1612777588 OF TYPE -S-
 ON ATOM NUMBER   2 HAS RADIAL NORMALIZATION=  1.000000
  LARGEST GAUSSIAN PRIMITIVE EXPONENT=     4173.5114600000 OF TYPE -S-
 ON ATOM NUMBER   6 HAS RADIAL NORMALIZATION=  1.000000
 DFT IS SWITCHED OFF, PERFORMING PURE SCF UNTIL SWOFF THRESHOLD IS REACHED.

 ITER EX DEM     TOTAL ENERGY        E CHANGE  DENSITY CHANGE    DIIS ERROR
   1  0  0     -131.4892736514  -131.4892736514   0.410128891   0.502313558
          * * *   INITIATING DIIS PROCEDURE   * * *
   2  1  0     -131.8187501254    -0.3294764740   0.239365123   0.155958316
   3  2  0     -131.8420598383    -0.0233097130   0.123482690   0.147485498
   4  3  0     -131.9288153220    -0.0867554837   0.012169247   0.009760056
   5  4  0     -131.9293050375    -0.0004897155   0.003533190   0.002398942
 CONVERGED TO SWOFF, SO DFT CALCULATION IS NOW SWITCHED ON.
          * * *   INITIATING DIIS PROCEDURE   * * *
   6  5  0     -132.6630168114    -0.7337117739   0.101249825   0.105067103
   7  6  0     -132.6757309186    -0.0127141072   0.032926146   0.020339288
   8  7  0     -132.6752134593     0.0005174592   0.024706746   0.024502753
   9  8  0     -132.6771647913    -0.0019513320   0.013218817   0.010245976
  10  9  0     -132.6777047733    -0.0005399820   0.000813972   0.000771150
  11 10  0     -132.6777079633    -0.0000031900   0.000266591   0.000257056
  12 11  0     -132.6777082641    -0.0000003008   0.000021959   0.000039228
  13 12  0     -132.6777082680    -0.0000000039   0.000001589   0.000001084
  14 13  0     -132.6777082680     0.0000000000   0.000000293   0.000000490

          -----------------
          DENSITY CONVERGED
          -----------------
     TIME TO FORM FOCK OPERATORS=       5.4 SECONDS (       0.4 SEC/ITER)
     TIME TO SOLVE SCF EQUATIONS=       0.0 SECONDS (       0.0 SEC/ITER)

 FINAL R-B3LYP ENERGY IS     -132.6777082680 AFTER  14 ITERATIONS
 DFT EXCHANGE + CORRELATION ENERGY =       -15.1090829400
 TOTAL ELECTRON NUMBER             =        22.0000240701

          ------------
          EIGENVECTORS
          ------------

                      1          2          3          4          5
                  -14.3290   -10.2414   -10.2274    -0.8988    -0.7708
                     A          A          A          A          A   
    1  C  1  S    0.000032   0.992912  -0.011791  -0.038819  -0.188220
    2  C  1  S   -0.000082   0.049830  -0.001012   0.078022   0.369681
    3  C  1  X    0.000000   0.000001   0.000001  -0.000057  -0.000182
    4  C  1  Y    0.000000  -0.000001   0.000001  -0.000093  -0.000730
    5  C  1  Z    0.000244   0.000444  -0.000487   0.035680   0.051543
    6  C  1  S   -0.001288  -0.019199   0.010256  -0.034971   0.352279
    7  C  1  X   -0.000001  -0.000005   0.000005  -0.000016   0.000071
    8  C  1  Y    0.000000  -0.000001   0.000003   0.000004   0.000081
    9  C  1  Z   -0.000298  -0.002475   0.004606  -0.034945   0.021106
   10  C  1 XX    0.000047  -0.008903  -0.000203  -0.002868  -0.010530
   11  C  1 YY    0.000047  -0.008894  -0.000206  -0.002829  -0.010359
   12  C  1 ZZ    0.000510  -0.008917  -0.000913   0.005915  -0.004253
   13  C  1 XY    0.000000   0.000001   0.000000  -0.000010  -0.000012
   14  C  1 XZ    0.000000  -0.000002   0.000000  -0.000010  -0.000085
   15  C  1 YZ    0.000000   0.000002   0.000000  -0.000006  -0.000017
   16  H  2  S    0.000036  -0.000009  -0.000270   0.019597   0.114587
   17  H  2  S    0.000078   0.002554   0.000193   0.000428   0.027954
   18  H  2  X   -0.000005   0.000162  -0.000068  -0.001771  -0.010255
   19  H  2  Y   -0.000002   0.000054  -0.000023  -0.000592  -0.003430
   20  H  2  Z    0.000000  -0.000006   0.000060   0.000745   0.004840
   21  C  3  S    0.000050   0.011387   0.992543  -0.159867  -0.041229
   22  C  3  S    0.000183   0.000336   0.049735   0.297540   0.086976
   23  C  3  X    0.000000  -0.000001  -0.000002  -0.000047  -0.000089
   24  C  3  Y    0.000000   0.000000   0.000000  -0.000020  -0.000095
   25  C  3  Z   -0.000711   0.000283  -0.000225   0.183148  -0.235632
   26  C  3  S   -0.001952   0.005379  -0.005310   0.100039   0.059842
   27  C  3  X    0.000000   0.000011   0.000000  -0.000045  -0.000127
   28  C  3  Y    0.000000   0.000004  -0.000001  -0.000024  -0.000119
   29  C  3  Z   -0.002265  -0.004755   0.012519  -0.146662   0.010466
   30  C  3 XX    0.000046  -0.000305  -0.010252  -0.020450  -0.002247
   31  C  3 YY    0.000046  -0.000307  -0.010252  -0.020438  -0.002218
   32  C  3 ZZ   -0.001676  -0.000962  -0.008121   0.014076   0.011349
   33  C  3 XY    0.000000   0.000000   0.000000  -0.000002  -0.000006
   34  C  3 XZ    0.000000  -0.000001   0.000001   0.000003   0.000031
   35  C  3 YZ    0.000000   0.000000   0.000000   0.000004   0.000029
   36  H  4  S    0.000036  -0.000018  -0.000266   0.019880   0.116099
   37  H  4  S    0.000078   0.002576   0.000201   0.000447   0.028327
   38  H  4  X    0.000001  -0.000035   0.000015   0.000381   0.002214
   39  H  4  Y    0.000006  -0.000164   0.000073   0.001837   0.010681
   40  H  4  Z    0.000000  -0.000009   0.000067   0.000715   0.004856
   41  H  5  S    0.000036  -0.000008  -0.000268   0.019669   0.114624
   42  H  5  S    0.000078   0.002550   0.000200   0.000452   0.028043
   43  H  5  X    0.000005  -0.000128   0.000053   0.001398   0.008081
   44  H  5  Y   -0.000004   0.000113  -0.000048  -0.001253  -0.007247
   45  H  5  Z   -0.000001  -0.000010   0.000067   0.000705   0.004792
   46  N  6  S    0.992780  -0.000001  -0.000455  -0.177521   0.064385
   47  N  6  S    0.034562   0.000103   0.000457   0.349229  -0.132056
   48  N  6  X    0.000000   0.000001   0.000000  -0.000013  -0.000028
   49  N  6  Y    0.000000   0.000000   0.000000  -0.000004  -0.000025
   50  N  6  Z   -0.002253  -0.000218   0.000346  -0.195785   0.057236
   51  N  6  S    0.006363   0.001766  -0.011492   0.437433  -0.148998
   52  N  6  X    0.000000  -0.000005   0.000000   0.000009   0.000041
   53  N  6  Y    0.000000  -0.000002   0.000000   0.000007   0.000036
   54  N  6  Z   -0.001086  -0.000207   0.004223  -0.089862   0.017019
   55  N  6 XX   -0.008350  -0.000021   0.000335  -0.018337   0.006323
   56  N  6 YY   -0.008350  -0.000021   0.000335  -0.018337   0.006322
   57  N  6 ZZ   -0.007004   0.000101   0.000170   0.009266  -0.002194
   58  N  6 XY    0.000000   0.000000   0.000000   0.000001   0.000000
   59  N  6 XZ    0.000000   0.000001   0.000000   0.000003   0.000002
   60  N  6 YZ    0.000000   0.000000   0.000000   0.000001   0.000002

                      6          7          8          9         10
                   -0.5094    -0.4599    -0.4580    -0.3543    -0.3223
                     A          A          A          A          A   
    1  C  1  S    0.043775  -0.000232   0.000391  -0.013151  -0.000078
    2  C  1  S   -0.088088   0.000303  -0.000838   0.023978   0.000220
    3  C  1  X   -0.004426   0.002379   0.430791   0.000455  -0.025458
    4  C  1  Y    0.001948   0.431746  -0.001870   0.000100  -0.139512
    5  C  1  Z    0.398553  -0.001199   0.003802   0.127299  -0.000184
    6  C  1  S   -0.082922   0.001923  -0.000330   0.173176  -0.000271
    7  C  1  X   -0.001766   0.000915   0.192194   0.000324  -0.013732
    8  C  1  Y    0.000518   0.191339  -0.000951   0.000048  -0.076164
    9  C  1  Z    0.163176  -0.000464   0.001879   0.122417  -0.000166
   10  C  1 XX   -0.010348   0.012043   0.008122  -0.004290  -0.006705
   11  C  1 YY   -0.010402  -0.011983  -0.008531  -0.004312   0.006722
   12  C  1 ZZ    0.027620  -0.000016   0.000464  -0.001037  -0.000059
   13  C  1 XY   -0.000209  -0.009649   0.013823  -0.000001   0.003577
   14  C  1 XZ    0.000177  -0.000094  -0.002992   0.000064   0.003076
   15  C  1 YZ   -0.000035  -0.003029  -0.000065  -0.000005   0.016749
   16  H  2  S   -0.123260   0.080670   0.235414  -0.022126  -0.056305
   17  H  2  S   -0.080823   0.062237   0.182525  -0.024815  -0.059324
   18  H  2  X    0.007000  -0.004146  -0.004586   0.000767   0.001730
   19  H  2  Y    0.002386   0.006227  -0.004105   0.000252  -0.002049
   20  H  2  Z    0.004043   0.001904   0.005732   0.001907   0.000102
   21  C  3  S   -0.114654   0.000273  -0.001553   0.065481   0.000017
   22  C  3  S    0.247653  -0.000548   0.003447  -0.134701  -0.000033
   23  C  3  X   -0.001266   0.000729   0.176042   0.001343   0.067190
   24  C  3  Y    0.000495   0.174194  -0.000999   0.000126   0.371176
   25  C  3  Z   -0.265911   0.000533  -0.003043  -0.254936   0.000384
   26  C  3  S    0.258100  -0.000658   0.003763  -0.093002  -0.000382
   27  C  3  X   -0.000517   0.000327   0.077172   0.000730   0.040051
   28  C  3  Y    0.000229   0.076097  -0.000434   0.000061   0.221650
   29  C  3  Z   -0.027223   0.000656  -0.000114   0.128397  -0.000272
   30  C  3 XX   -0.006461   0.000943   0.000537   0.004331  -0.000630
   31  C  3 YY   -0.006457  -0.000905  -0.000713   0.004328   0.000619
   32  C  3 ZZ   -0.004996  -0.000010  -0.000089   0.022110   0.000014
   33  C  3 XY   -0.000014  -0.000758   0.001060   0.000000   0.000321
   34  C  3 XZ    0.000100  -0.000038  -0.008809   0.000048   0.004825
   35  C  3 YZ   -0.000045  -0.008925   0.000050   0.000004   0.026675
   36  H  4  S   -0.120997  -0.245187  -0.050969  -0.021970   0.117015
   37  H  4  S   -0.079175  -0.188498  -0.039403  -0.024688   0.122374
   38  H  4  X   -0.001562  -0.002676   0.007104  -0.000149   0.000480
   39  H  4  Y   -0.007105  -0.005496  -0.002744  -0.000752   0.002014
   40  H  4  Z    0.004239  -0.005860  -0.001140   0.001973  -0.000287
   41  H  5  S   -0.117094   0.166523  -0.188713  -0.021928  -0.061055
   42  H  5  S   -0.076763   0.128432  -0.146352  -0.024704  -0.064045
   43  H  5  X   -0.005378   0.006854  -0.000083  -0.000581  -0.002427
   44  H  5  Y    0.004763   0.001501   0.006861   0.000524  -0.001041
   45  H  5  Z    0.004286   0.003919  -0.004413   0.001951   0.000169
   46  N  6  S    0.062542  -0.000139   0.000889  -0.113088   0.000051
   47  N  6  S   -0.128899   0.000334  -0.001825   0.246171  -0.000137
   48  N  6  X   -0.000578   0.000392   0.096611   0.001232   0.080609
   49  N  6  Y    0.000217   0.094838  -0.000553   0.000104   0.445500
   50  N  6  Z   -0.028216   0.000152  -0.000967   0.503974  -0.000448
   51  N  6  S   -0.210194   0.000041  -0.003463   0.357508   0.000091
   52  N  6  X   -0.000218   0.000163   0.041654   0.000667   0.046533
   53  N  6  Y    0.000063   0.040690  -0.000242   0.000058   0.257039
   54  N  6  Z   -0.008938   0.000198  -0.000312   0.299012  -0.000362
   55  N  6 XX    0.004409  -0.000004   0.000051   0.005650  -0.000035
   56  N  6 YY    0.004409   0.000005   0.000057   0.005649   0.000009
   57  N  6 ZZ    0.009421  -0.000014   0.000175  -0.045578   0.000028
   58  N  6 XY    0.000000   0.000003  -0.000004   0.000001   0.000009
   59  N  6 XZ    0.000070  -0.000042  -0.010339  -0.000098  -0.005706
   60  N  6 YZ   -0.000026  -0.010200   0.000059  -0.000008  -0.031515

                     11         12         13         14         15
                   -0.3221     0.0393     0.0400     0.0835     0.1594
                     A          A          A          A          A   
    1  C  1  S   -0.000085   0.000876  -0.001687  -0.154810  -0.001648
    2  C  1  S    0.000123  -0.001132   0.002836   0.246953   0.002470
    3  C  1  X   -0.140875  -0.087806  -0.008584  -0.001252   0.403617
    4  C  1  Y    0.025338  -0.007512   0.084099   0.002929  -0.183124
    5  C  1  Z   -0.000716   0.000063  -0.001389  -0.080816   0.004559
    6  C  1  S    0.000169  -0.010972   0.017214   2.032927   0.029537
    7  C  1  X   -0.077108  -0.409866  -0.038309  -0.004161   1.176204
    8  C  1  Y    0.014024  -0.038034   0.406147   0.001742  -0.539772
    9  C  1  Z   -0.000686   0.001406  -0.003926  -0.462237   0.016482
   10  C  1 XX   -0.003080   0.008122  -0.009575  -0.014224  -0.002058
   11  C  1 YY    0.003204  -0.008160   0.009247  -0.014527   0.002595
   12  C  1 ZZ   -0.000135   0.000339  -0.000121  -0.009789  -0.000734
   13  C  1 XY   -0.007815   0.011101   0.009332   0.000036  -0.013743
   14  C  1 XZ    0.016764  -0.040754  -0.003774  -0.000162  -0.011158
   15  C  1 YZ   -0.002995  -0.003862   0.040823  -0.000539   0.005013
   16  H  2  S   -0.103643   0.146647  -0.034006  -0.031981  -0.031873
   17  H  2  S   -0.109200   0.670758  -0.161504  -1.050623  -1.155896
   18  H  2  X    0.001300  -0.000936  -0.000253  -0.006279  -0.001823
   19  H  2  Y    0.001886   0.000032   0.001263  -0.002016  -0.010382
   20  H  2  Z    0.000152  -0.007518   0.001745   0.000042  -0.001580
   21  C  3  S    0.000105  -0.000567   0.000242   0.024364   0.002198
   22  C  3  S   -0.000251   0.000831   0.000223   0.032784  -0.002744
   23  C  3  X    0.370339  -0.419384  -0.039313  -0.001051  -0.202836
   24  C  3  Y   -0.067156  -0.039410   0.421891  -0.006394   0.089869
   25  C  3  Z    0.001316  -0.001410   0.000457   0.036882   0.004612
   26  C  3  S   -0.000865   0.006050  -0.007026  -0.827513  -0.035360
   27  C  3  X    0.221122  -0.479823  -0.045166  -0.001726  -0.527192
   28  C  3  Y   -0.040167  -0.045071   0.484411  -0.009327   0.237446
   29  C  3  Z   -0.000206  -0.001512  -0.002740  -0.419377   0.011675
   30  C  3 XX   -0.000309   0.002285  -0.002651  -0.002811  -0.001675
   31  C  3 YY    0.000302  -0.002280   0.002606  -0.002978   0.001515
   32  C  3 ZZ   -0.000024  -0.000176   0.000230   0.023670   0.000495
   33  C  3 XY   -0.000736   0.003111   0.002605   0.000050  -0.010031
   34  C  3 XZ    0.026701   0.038842   0.003621   0.000064   0.000616
   35  C  3 YZ   -0.004846   0.003645  -0.038799   0.000376  -0.000265
   36  H  4  S    0.003422  -0.043883   0.141744  -0.034403  -0.008331
   37  H  4  S    0.003692  -0.196536   0.639836  -1.063111  -0.355197
   38  H  4  X   -0.002792  -0.001516  -0.000258   0.001208   0.013551
   39  H  4  Y    0.000636   0.000042   0.001029   0.006471  -0.001354
   40  H  4  Z   -0.000007   0.002245  -0.007549   0.000027  -0.000331
   41  H  5  S    0.101072  -0.102470  -0.109867  -0.033129   0.044488
   42  H  5  S    0.106260  -0.463358  -0.507542  -1.057598   1.501917
   43  H  5  X    0.000372  -0.001218   0.000149   0.004928  -0.002248
   44  H  5  Y   -0.002343  -0.000382   0.001181  -0.004490   0.007511
   45  H  5  Z   -0.000240   0.005289   0.005804  -0.000110   0.002802
   46  N  6  S    0.000171   0.000166  -0.000246  -0.030213  -0.000748
   47  N  6  S   -0.000379  -0.000434   0.000281   0.034507   0.002426
   48  N  6  X    0.445102   0.421625   0.039312   0.000668   0.177686
   49  N  6  Y   -0.080748   0.039719  -0.422969   0.005664  -0.079505
   50  N  6  Z   -0.001349   0.000855  -0.000735  -0.078628  -0.003351
   51  N  6  S   -0.000396  -0.001066   0.005306   0.704917   0.003574
   52  N  6  X    0.256938   0.500537   0.046864   0.001313   0.307264
   53  N  6  Y   -0.046589   0.047066  -0.503211   0.007663  -0.137737
   54  N  6  Z   -0.000874   0.001091  -0.002531  -0.322270  -0.004786
   55  N  6 XX   -0.000039   0.000312  -0.000446  -0.012995  -0.000264
   56  N  6 YY   -0.000012  -0.000264   0.000233  -0.013033   0.000205
   57  N  6 ZZ    0.000105  -0.000036   0.000016   0.002675   0.000310
   58  N  6 XY   -0.000027   0.000397   0.000341   0.000012  -0.001512
   59  N  6 XZ   -0.031471   0.005954   0.000562   0.000012   0.004922
   60  N  6 YZ    0.005706   0.000560  -0.006037   0.000129  -0.002144

                     16         17         18         19         20
                    0.1603     0.1868     0.2877     0.5303     0.5311
                     A          A          A          A          A   
    1  C  1  S    0.000366   0.054743  -0.066249   0.000478   0.000428
    2  C  1  S   -0.000859  -0.107921  -0.202087   0.000242   0.001228
    3  C  1  X    0.183402   0.006475  -0.002995  -0.417791   0.178676
    4  C  1  Y    0.403409  -0.001467  -0.000947  -0.177424  -0.416082
    5  C  1  Z   -0.000103  -0.419821  -0.327857  -0.003994  -0.002612
    6  C  1  S   -0.009982  -0.592174   3.912587  -0.023231  -0.015984
    7  C  1  X    0.535421   0.020482  -0.006624   0.911738  -0.388703
    8  C  1  Y    1.191015  -0.007349  -0.000826   0.395198   0.923987
    9  C  1  Z    0.007468  -1.430129   2.436735  -0.012001   0.003331
   10  C  1 XX   -0.011619  -0.018561  -0.010697  -0.049309  -0.030645
   11  C  1 YY    0.011844  -0.018881  -0.010734   0.049402   0.030623
   12  C  1 ZZ   -0.000122   0.036914  -0.030586   0.000025   0.000281
   13  C  1 XY    0.002462  -0.000129   0.000113  -0.035335   0.057169
   14  C  1 XZ   -0.005002  -0.000055  -0.000124   0.000378   0.000037
   15  C  1 YZ   -0.010896   0.000119  -0.000081   0.000177  -0.000056
   16  H  2  S   -0.029996  -0.067235   0.034269  -0.332582   0.029249
   17  H  2  S   -1.069047  -0.348685  -0.144571  -0.302956   0.023768
   18  H  2  X   -0.007572  -0.005487  -0.005294   0.024944  -0.012179
   19  H  2  Y    0.008016  -0.001964  -0.001741   0.011285   0.029529
   20  H  2  Z   -0.001591  -0.014820   0.001577   0.006121  -0.000432
   21  C  3  S    0.000406  -0.127822   0.030200  -0.000708  -0.000363
   22  C  3  S   -0.001372   0.151884  -0.194080   0.001167   0.001775
   23  C  3  X   -0.092106  -0.001883   0.000071  -0.715501   0.305836
   24  C  3  Y   -0.197870   0.000877  -0.000347  -0.305713  -0.716610
   25  C  3  Z    0.001196  -0.256107   0.179633  -0.000562  -0.001186
   26  C  3  S    0.002283   2.455191   1.151839  -0.002951  -0.010109
   27  C  3  X   -0.239943  -0.007573   0.001827   0.509705  -0.219242
   28  C  3  Y   -0.523983   0.002479   0.000106   0.216173   0.509934
   29  C  3  Z    0.012450  -0.343153   5.170988  -0.030185  -0.011985
   30  C  3 XX   -0.008649   0.009700   0.005830  -0.008450  -0.005334
   31  C  3 YY    0.008736   0.009733   0.005695   0.009089   0.005844
   32  C  3 ZZ   -0.000131  -0.031627  -0.049052  -0.000954  -0.000573
   33  C  3 XY    0.001943  -0.000170   0.000069  -0.006205   0.010313
   34  C  3 XZ    0.000216  -0.000079   0.000098  -0.006504   0.002737
   35  C  3 YZ    0.000444  -0.000015   0.000031  -0.002863  -0.006612
   36  H  4  S    0.043125  -0.068544   0.034335   0.191350   0.274447
   37  H  4  S    1.562608  -0.325446  -0.162218   0.178587   0.265944
   38  H  4  X    0.001650   0.001252   0.001074   0.028519  -0.013386
   39  H  4  Y   -0.007125   0.005469   0.005766   0.009910   0.025443
   40  H  4  Z    0.002591  -0.014662   0.001482  -0.003870  -0.005434
   41  H  5  S   -0.012809  -0.067925   0.033567   0.142690  -0.299924
   42  H  5  S   -0.470446  -0.294720  -0.161954   0.124506  -0.281506
   43  H  5  X    0.010214   0.004008   0.004111   0.028060  -0.009360
   44  H  5  Y    0.008391  -0.003612  -0.003804   0.013753   0.027137
   45  H  5  Z   -0.000710  -0.014535   0.001576  -0.002764   0.005906
   46  N  6  S    0.000252   0.056696   0.112395  -0.000357  -0.000263
   47  N  6  S    0.000189  -0.156092  -0.018528   0.000327   0.000430
   48  N  6  X    0.080448   0.001982  -0.000430  -0.110064   0.047833
   49  N  6  Y    0.174533  -0.000689   0.000023  -0.046680  -0.111268
   50  N  6  Z   -0.000030   0.211129   0.010934   0.002363   0.001353
   51  N  6  S   -0.011709  -0.636545  -4.796493   0.024615   0.013279
   52  N  6  X    0.139581   0.003859  -0.000718   0.112966  -0.048339
   53  N  6  Y    0.303383  -0.001339   0.000061   0.048688   0.114256
   54  N  6  Z    0.004109   0.452942   1.763918  -0.010508  -0.006973
   55  N  6 XX   -0.001119   0.007004   0.063386  -0.000905  -0.000561
   56  N  6 YY    0.001505   0.007013   0.063361   0.000513   0.000364
   57  N  6 ZZ    0.000035  -0.020076   0.001156   0.000726   0.000469
   58  N  6 XY    0.000300  -0.000027   0.000011  -0.000495   0.000843
   59  N  6 XZ    0.002247   0.000025   0.000001   0.059971  -0.025628
   60  N  6 YZ    0.004746  -0.000029   0.000024   0.025646   0.060102

                     21         22         23         24         25
                    0.5802     0.6216     0.6224     0.6839     0.7793
                     A          A          A          A          A   
    1  C  1  S    0.029318   0.000391   0.000541  -0.019087   0.072899
    2  C  1  S   -0.199156   0.001170   0.005335   0.054903  -0.211617
    3  C  1  X   -0.004696   0.234105  -0.606065  -0.003073  -0.020419
    4  C  1  Y   -0.001605  -0.606859  -0.230579  -0.001912  -0.024833
    5  C  1  Z   -0.736813   0.003107   0.006727   0.213226  -0.085848
    6  C  1  S   -1.378052  -0.001337  -0.005388   0.906798   1.772882
    7  C  1  X    0.008598  -0.650107   1.694219   0.008080   0.041327
    8  C  1  Y    0.006664   1.707600   0.653057   0.004787   0.049975
    9  C  1  Z    0.419898   0.001838  -0.018055   0.160506   1.446469
   10  C  1 XX    0.001067  -0.033911  -0.050236  -0.016974   0.024640
   11  C  1 YY    0.001384   0.033864   0.050782  -0.016897   0.012783
   12  C  1 ZZ    0.000637   0.000312   0.000725   0.037641   0.097593
   13  C  1 XY   -0.000187   0.058064  -0.039186   0.000156  -0.000578
   14  C  1 XZ   -0.000304   0.004746  -0.011365  -0.000061  -0.006437
   15  C  1 YZ   -0.000153  -0.012127  -0.004248  -0.000019  -0.006672
   16  H  2  S    0.101852   0.013457  -0.256456  -0.065903   0.451004
   17  H  2  S    0.113518   0.024303  -0.582303  -0.009266  -0.059972
   18  H  2  X   -0.007611  -0.015185   0.035962  -0.004172   0.040759
   19  H  2  Y   -0.002479   0.040687   0.014324  -0.001291   0.012176
   20  H  2  Z    0.007265   0.002014  -0.045083  -0.008158  -0.038898
   21  C  3  S   -0.075311   0.000121   0.000289   0.032511   0.002153
   22  C  3  S    0.032856   0.003801   0.005881  -0.817847   1.013753
   23  C  3  X    0.007331  -0.198378   0.518290   0.000616   0.005954
   24  C  3  Y    0.008278   0.517692   0.198471   0.000566   0.005796
   25  C  3  Z   -0.067148  -0.001273  -0.000620  -0.590671  -0.656290
   26  C  3  S   -2.268417   0.004366   0.029471  -0.347055  -2.279466
   27  C  3  X   -0.011002   0.440428  -1.151614  -0.002601  -0.019689
   28  C  3  Y   -0.011832  -1.152822  -0.442327  -0.002100  -0.018991
   29  C  3  Z   -2.896872   0.013938   0.016612   1.283057   2.580722
   30  C  3 XX    0.051948  -0.009426  -0.014069  -0.051592   0.052614
   31  C  3 YY    0.052154   0.009498   0.013686  -0.051470   0.054466
   32  C  3 ZZ   -0.220804   0.001141   0.002896  -0.013740   0.080332
   33  C  3 XY   -0.000035   0.016191  -0.010749  -0.000036  -0.000163
   34  C  3 XZ    0.000468  -0.014033   0.036243   0.000156   0.000395
   35  C  3 YZ    0.000328   0.036301   0.013758   0.000078   0.000804
   36  H  4  S    0.102717   0.220620   0.142899  -0.065316   0.382394
   37  H  4  S    0.115950   0.497617   0.312576  -0.000940   0.082798
   38  H  4  X    0.001739  -0.016196   0.039343   0.001078  -0.007902
   39  H  4  Y    0.007923   0.036267   0.012737   0.004947  -0.036746
   40  H  4  Z    0.007385   0.037664   0.023667  -0.007620  -0.033187
   41  H  5  S    0.102570  -0.227523   0.120815  -0.066856   0.424978
   42  H  5  S    0.112574  -0.519729   0.259477  -0.000395  -0.002523
   43  H  5  X    0.006065  -0.012715   0.038805   0.003748  -0.031191
   44  H  5  Y   -0.005224   0.038558   0.016795  -0.003157   0.025764
   45  H  5  Z    0.007367  -0.040200   0.020243  -0.007863  -0.035898
   46  N  6  S   -0.062829   0.000290   0.000738  -0.052720   0.000158
   47  N  6  S    0.202919  -0.001425  -0.003499   0.047464  -0.144276
   48  N  6  X    0.001974  -0.112845   0.298685   0.001236  -0.026461
   49  N  6  Y    0.002685   0.295855   0.114908   0.000871  -0.028158
   50  N  6  Z    0.420851  -0.001842  -0.004833   0.201549  -0.112712
   51  N  6  S    3.010006  -0.011543  -0.022731  -0.137597  -0.748305
   52  N  6  X    0.000094  -0.000144  -0.002791  -0.000536   0.035020
   53  N  6  Y   -0.000387   0.000710  -0.000947  -0.000275   0.036268
   54  N  6  Z   -1.810768   0.007860   0.020349  -1.171800   0.120579
   55  N  6 XX   -0.003450  -0.001174  -0.001852   0.054221  -0.016540
   56  N  6 YY   -0.003430   0.000913   0.001190   0.054246  -0.016029
   57  N  6 ZZ    0.161633  -0.000752  -0.001828  -0.100409  -0.081972
   58  N  6 XY   -0.000001   0.001784  -0.001176  -0.000009  -0.000013
   59  N  6 XZ   -0.000552   0.012306  -0.032107  -0.000016   0.000062
   60  N  6 YZ   -0.000627  -0.032028  -0.012261  -0.000017   0.000016

                     26         27         28         29         30
                    0.7939     0.7958     0.8399     0.8408     0.8594
                     A          A          A          A          A   
    1  C  1  S    0.002310  -0.003605   0.000182  -0.000129   0.017583
    2  C  1  S   -0.013195  -0.007150  -0.017724   0.035088  -0.946760
    3  C  1  X    0.634855  -0.073698   0.285798   0.087442  -0.005325
    4  C  1  Y   -0.071106  -0.625350  -0.091165   0.307370   0.023619
    5  C  1  Z   -0.001976   0.014707   0.014900  -0.018009   0.630256
    6  C  1  S    0.071957  -0.061271   0.019568  -0.070012   1.758820
    7  C  1  X   -1.308978   0.154814  -0.144957  -0.045526   0.006895
    8  C  1  Y    0.145269   1.304026   0.055086  -0.188101  -0.033191
    9  C  1  Z    0.047331  -0.098714  -0.045130   0.036138  -1.350405
   10  C  1 XX   -0.056051   0.102211  -0.038997  -0.129769   0.057746
   11  C  1 YY    0.058246  -0.103480   0.042401   0.127405   0.069523
   12  C  1 ZZ    0.001603  -0.007501  -0.004590   0.005030  -0.163648
   13  C  1 XY   -0.122188  -0.065002  -0.144871   0.050378   0.007124
   14  C  1 XZ    0.139409  -0.016583   0.055750   0.018113  -0.002603
   15  C  1 YZ   -0.015278  -0.138358  -0.017005   0.060678   0.005214
   16  H  2  S   -0.561684   0.245451  -0.416765  -0.317645   0.409535
   17  H  2  S    1.311112  -0.620588   0.648184   0.524986  -1.053531
   18  H  2  X   -0.047176   0.030363  -0.021438  -0.040045   0.063657
   19  H  2  Y   -0.027875  -0.014328  -0.040139   0.034444   0.023909
   20  H  2  Z    0.052205  -0.023171  -0.012533  -0.008311   0.007592
   21  C  3  S   -0.000391  -0.000624  -0.001202   0.000916  -0.039273
   22  C  3  S    0.031013  -0.059546  -0.016150   0.010144  -0.336438
   23  C  3  X   -0.169993   0.020697   0.363724   0.109235  -0.004784
   24  C  3  Y    0.019560   0.182002  -0.107637   0.357178   0.009103
   25  C  3  Z   -0.020224   0.040604   0.013277  -0.012518   0.425714
   26  C  3  S   -0.074187   0.137816   0.048818  -0.025763   1.144810
   27  C  3  X    0.567489  -0.069394  -0.992738  -0.298219   0.011705
   28  C  3  Y   -0.063829  -0.596851   0.293264  -0.973770  -0.024101
   29  C  3  Z    0.081869  -0.147034  -0.039309   0.018342  -0.744604
   30  C  3 XX    0.008931  -0.015053   0.000093  -0.000572   0.027224
   31  C  3 YY   -0.004883   0.009934   0.000369  -0.000788   0.026592
   32  C  3 ZZ    0.001462  -0.005783  -0.003113   0.003294  -0.109212
   33  C  3 XY    0.014544   0.007801  -0.000098  -0.000172  -0.000182
   34  C  3 XZ   -0.018227   0.002057  -0.110705  -0.033673   0.001896
   35  C  3 YZ    0.001834   0.015273   0.033250  -0.111669  -0.004724
   36  H  4  S    0.071265  -0.629230  -0.041873   0.524923   0.437628
   37  H  4  S   -0.138448   1.397607   0.057465  -0.834665  -1.113013
   38  H  4  X    0.025098   0.015024   0.053325  -0.004247  -0.015672
   39  H  4  Y   -0.012528   0.060550  -0.007722  -0.043487  -0.069456
   40  H  4  Z   -0.006709   0.061767  -0.000811   0.013009   0.007569
   41  H  5  S    0.535356   0.342174   0.482976  -0.242607   0.383364
   42  H  5  S   -1.187602  -0.834790  -0.783174   0.409690  -1.003192
   43  H  5  X   -0.027929  -0.038801  -0.014433   0.048949  -0.047618
   44  H  5  Y    0.045607   0.006955   0.043167   0.022746   0.044349
   45  H  5  Z   -0.049006  -0.032039   0.014763  -0.006138   0.008776
   46  N  6  S    0.000075   0.000263   0.000501  -0.000544   0.022043
   47  N  6  S   -0.006216   0.007928  -0.001276  -0.000281  -0.035389
   48  N  6  X    0.566202  -0.065029  -0.665702  -0.199029   0.008299
   49  N  6  Y   -0.067121  -0.587919   0.196195  -0.647957  -0.013981
   50  N  6  Z   -0.001015   0.010239   0.009461  -0.008732   0.347853
   51  N  6  S   -0.020739   0.038414   0.008582   0.001370  -0.010334
   52  N  6  X   -0.793894   0.092654   1.157047   0.346949  -0.014669
   53  N  6  Y    0.093217   0.830092  -0.341706   1.132043   0.027385
   54  N  6  Z   -0.000080  -0.008104  -0.006327   0.003795  -0.154811
   55  N  6 XX    0.001411  -0.002956   0.000437   0.002046  -0.006613
   56  N  6 YY   -0.002812   0.004731  -0.000730  -0.001919  -0.006972
   57  N  6 ZZ   -0.002407   0.005652   0.002295  -0.002807   0.093742
   58  N  6 XY    0.004508   0.002431   0.002201  -0.000820  -0.000122
   59  N  6 XZ   -0.001207   0.000155   0.018533   0.005677  -0.000323
   60  N  6 YZ    0.000152   0.001521  -0.005525   0.018696   0.000799

                     31         32         33         34         35
                    1.0480     1.3199     1.3211     1.3800     1.5240
                     A          A          A          A          A   
    1  C  1  S   -0.002410  -0.000634  -0.007445   0.135383  -0.000100
    2  C  1  S   -1.335330  -0.004711  -0.080905   1.442586  -0.000360
    3  C  1  X   -0.000447   0.039547  -0.156194  -0.005421  -0.027616
    4  C  1  Y    0.000725  -0.157495  -0.040834   0.000995   0.001985
    5  C  1  Z   -0.352853   0.001228   0.006003  -0.058925   0.000600
    6  C  1  S    1.666322   0.024575   0.341739  -5.336603   0.013145
    7  C  1  X    0.002576  -0.105653   0.414849   0.011570   0.200453
    8  C  1  Y   -0.001000   0.419157   0.107899  -0.000179  -0.011061
    9  C  1  Z   -0.461096   0.009486   0.097623  -1.407446   0.004671
   10  C  1 XX   -0.047136   0.169463   0.196927   0.056029   0.033285
   11  C  1 YY   -0.045495  -0.170155  -0.202576   0.037197  -0.033985
   12  C  1 ZZ   -0.057501  -0.000035  -0.002625   0.056041   0.000645
   13  C  1 XY    0.000558  -0.226747   0.195192   0.008808   0.062645
   14  C  1 XZ    0.000659  -0.126764   0.490890   0.023951  -0.070325
   15  C  1 YZ    0.001367   0.492153   0.124699   0.008651   0.003390
   16  H  2  S    0.025695   0.001346   0.015586   0.492100  -0.067774
   17  H  2  S   -0.661696  -0.018418  -0.254748   0.347183  -0.104772
   18  H  2  X    0.023579   0.058986   0.080682   0.007538  -0.006931
   19  H  2  Y    0.008113  -0.156680   0.038168   0.001845  -0.014751
   20  H  2  Z    0.001250   0.012292   0.176038  -0.012272   0.010591
   21  C  3  S    0.033210   0.000076   0.000828  -0.007225   0.000126
   22  C  3  S   -0.627248   0.004526   0.051094  -0.780797   0.001928
   23  C  3  X    0.001570  -0.025179   0.097563   0.002861  -0.004146
   24  C  3  Y    0.000867   0.098117   0.024898   0.000573   0.000212
   25  C  3  Z   -0.406884   0.000595   0.000657  -0.048158  -0.000320
   26  C  3  S   -0.038125  -0.021497  -0.273429   5.615331   0.009165
   27  C  3  X   -0.005795   0.107649  -0.416914  -0.010612  -0.059194
   28  C  3  Y   -0.003638  -0.420155  -0.106599  -0.001492   0.002955
   29  C  3  Z   -1.556977   0.013602   0.131492  -0.802552   0.022663
   30  C  3 XX   -0.077840   0.048677   0.063050  -0.124472   0.328698
   31  C  3 YY   -0.078706  -0.047851  -0.051050  -0.128750  -0.329682
   32  C  3 ZZ    0.064949  -0.000541  -0.008513   0.201393   0.000727
   33  C  3 XY    0.000178  -0.064540   0.055801   0.002708   0.607202
   34  C  3 XZ   -0.000677   0.102923  -0.399623  -0.023079   0.081899
   35  C  3 YZ   -0.000898  -0.399725  -0.101579  -0.007564  -0.003669
   36  H  4  S    0.032325  -0.038703  -0.043545   0.484394   0.010701
   37  H  4  S   -0.674541   0.212708   0.084717   0.364186   0.016665
   38  H  4  X   -0.005261   0.087360  -0.139926  -0.008458   0.030270
   39  H  4  Y   -0.024734   0.062470   0.067746  -0.000736  -0.007989
   40  H  4  Z    0.001101  -0.160024  -0.078011  -0.022473  -0.002139
   41  H  5  S    0.027092   0.031201  -0.047600   0.488808   0.055749
   42  H  5  S   -0.661497  -0.194904   0.109691   0.358520   0.088374
   43  H  5  X   -0.018766  -0.116633  -0.056914  -0.007562   0.006348
   44  H  5  Y    0.016944  -0.021272  -0.135373  -0.004875   0.021444
   45  H  5  Z    0.001898   0.148039  -0.099312  -0.021608  -0.009854
   46  N  6  S   -0.059640   0.000038  -0.000271   0.027746   0.000295
   47  N  6  S    0.192833  -0.003015  -0.037809   1.048496   0.004881
   48  N  6  X   -0.000789  -0.025808   0.100680   0.007950  -0.035325
   49  N  6  Y   -0.000396   0.100061   0.025547   0.002664   0.001564
   50  N  6  Z   -0.710943   0.001766   0.013765  -0.213002   0.000529
   51  N  6  S    1.425101   0.001362   0.055282  -3.051739  -0.028642
   52  N  6  X    0.003353  -0.060682   0.234380   0.005511   0.028684
   53  N  6  Y    0.002347   0.236571   0.059840   0.001061  -0.001362
   54  N  6  Z   -0.059294  -0.002996  -0.045166   1.460391   0.008898
   55  N  6 XX    0.038746   0.016055   0.014546   0.123739   0.266518
   56  N  6 YY    0.038458  -0.016924  -0.024672   0.122084  -0.265841
   57  N  6 ZZ   -0.173688   0.000083  -0.001225   0.090301   0.000939
   58  N  6 XY    0.000052  -0.022044   0.019172   0.001134   0.490946
   59  N  6 XZ    0.000351  -0.057886   0.225338   0.013537  -0.049827
   60  N  6 YZ    0.000367   0.225019   0.057341   0.004179   0.002149

                     36         37         38         39         40
                    1.5241     1.5897     1.7445     1.7463     1.9390
                     A          A          A          A          A   
    1  C  1  S   -0.000036   0.106936   0.002429  -0.000462   0.000503
    2  C  1  S    0.000379   1.241720   0.025107  -0.006502   0.002651
    3  C  1  X    0.000955  -0.001282  -0.024502   0.013010   0.082196
    4  C  1  Y    0.027410   0.001538  -0.012437  -0.023151  -0.037750
    5  C  1  Z   -0.000718  -0.202861  -0.001111   0.001812  -0.000381
    6  C  1  S   -0.011392  -8.757528  -0.142938   0.030489  -0.014515
    7  C  1  X   -0.010358   0.000361   0.509351  -0.271411  -0.340243
    8  C  1  Y   -0.201411  -0.002064   0.272584   0.506046   0.160648
    9  C  1  Z   -0.006128  -3.099903  -0.057391   0.013166  -0.003643
   10  C  1 XX   -0.052639   0.145919   0.197398   0.091547  -0.050455
   11  C  1 YY    0.053283   0.142256  -0.188489  -0.093738   0.055404
   12  C  1 ZZ   -0.000453  -0.217411  -0.007653   0.002201  -0.004912
   13  C  1 XY    0.038687   0.001975   0.114811  -0.217804  -0.332882
   14  C  1 XZ    0.004073   0.001600   0.242319  -0.132286   0.229334
   15  C  1 YZ    0.069814   0.001206   0.130591   0.248158  -0.100882
   16  H  2  S    0.026013   0.317773  -0.180895   0.032539   0.236777
   17  H  2  S    0.040815   0.337693  -0.131512   0.021306   0.007125
   18  H  2  X    0.013810   0.002211   0.101014   0.000253   0.143080
   19  H  2  Y   -0.027792   0.000158   0.022961  -0.055295   0.021572
   20  H  2  Z   -0.003751   0.079738   0.359481  -0.063045   0.035265
   21  C  3  S   -0.000131  -0.056751  -0.000685   0.000136   0.000052
   22  C  3  S   -0.001794  -0.977331  -0.015856   0.003267   0.000222
   23  C  3  X    0.000239   0.000203  -0.090534   0.048966  -0.066013
   24  C  3  Y    0.004336  -0.000120  -0.049081  -0.092400   0.028441
   25  C  3  Z    0.000573   0.110228  -0.002135   0.001249  -0.002902
   26  C  3  S   -0.011573  -0.884130   0.045565  -0.012212   0.009658
   27  C  3  X    0.003308   0.005336  -0.443976   0.238297   0.087210
   28  C  3  Y    0.058356   0.002483  -0.237492  -0.444012  -0.042358
   29  C  3  Z   -0.024769  -9.706137  -0.117354   0.024573  -0.003477
   30  C  3 XX   -0.525282   0.147849  -0.000128  -0.001120  -0.085411
   31  C  3 YY    0.526367   0.142094   0.003971  -0.000017   0.087379
   32  C  3 ZZ   -0.000817  -0.176040  -0.000567   0.000236  -0.000617
   33  C  3 XY    0.380308   0.001107  -0.001270   0.001391  -0.527329
   34  C  3 XZ   -0.004979  -0.008454   0.390311  -0.208576  -0.014814
   35  C  3 YZ   -0.080541  -0.002438   0.209658   0.390158   0.007939
   36  H  4  S   -0.070880   0.311966   0.127818   0.140329   0.071835
   37  H  4  S   -0.113985   0.348512   0.094795   0.106375   0.007548
   38  H  4  X    0.006714  -0.002857  -0.031110   0.051520   0.075534
   39  H  4  Y    0.010367  -0.002358   0.073170   0.071021  -0.057467
   40  H  4  Z    0.011687   0.084189  -0.231632  -0.279171   0.010239
   41  H  5  S    0.044137   0.314608   0.074222  -0.175910  -0.307282
   42  H  5  S    0.071354   0.344198   0.050648  -0.130012  -0.009386
   43  H  5  X   -0.022458  -0.003979  -0.009562  -0.084290   0.136843
   44  H  5  Y   -0.013627  -0.000225  -0.060636   0.050704  -0.124114
   45  H  5  Z   -0.006952   0.084996  -0.124207   0.341775  -0.043406
   46  N  6  S   -0.000327  -0.100565  -0.000798   0.000154   0.000030
   47  N  6  S   -0.005910  -1.572782  -0.006686   0.000386   0.003320
   48  N  6  X    0.002161   0.004193  -0.208614   0.111718  -0.005062
   49  N  6  Y    0.034646   0.001194  -0.112030  -0.208926   0.001501
   50  N  6  Z   -0.000319  -0.222575  -0.005347   0.001672  -0.002047
   51  N  6  S    0.032620  10.270956   0.085594  -0.015847  -0.004283
   52  N  6  X   -0.001666  -0.003761   0.301594  -0.162161  -0.000152
   53  N  6  Y   -0.028145  -0.001364   0.161674   0.302755   0.002051
   54  N  6  Z   -0.010391  -2.982142  -0.018697   0.002817   0.003232
   55  N  6 XX   -0.425922  -0.073843  -0.099266  -0.048770   0.114379
   56  N  6 YY    0.425056  -0.080246   0.100712   0.048208  -0.113253
   57  N  6 ZZ   -0.001038  -0.334235  -0.003585   0.000789  -0.000608
   58  N  6 XY    0.307720   0.001203  -0.059509   0.113970   0.694259
   59  N  6 XZ    0.003108   0.006749  -0.447515   0.240736  -0.121470
   60  N  6 YZ    0.048935   0.001712  -0.240907  -0.451251   0.051552

                     41         42         43         44         45
                    1.9406     1.9933     2.0338     2.0369     2.0843
                     A          A          A          A          A   
    1  C  1  S    0.000823   0.000060  -0.000790   0.001610  -0.017041
    2  C  1  S    0.002169   0.000310  -0.005148   0.002563  -0.129207
    3  C  1  X   -0.035201   0.002727  -0.135723  -0.056267   0.000498
    4  C  1  Y   -0.078764  -0.004303   0.056325  -0.138248  -0.004436
    5  C  1  Z    0.001033   0.000016  -0.000100   0.003748  -0.092909
    6  C  1  S   -0.013593  -0.001383   0.012369   0.002732  -0.609619
    7  C  1  X    0.147434  -0.020080   0.587860   0.244349   0.004416
    8  C  1  Y    0.339454   0.023317  -0.251588   0.619183   0.025737
    9  C  1  Z   -0.005467  -0.000486   0.004999  -0.013663   0.324949
   10  C  1 XX    0.281000   0.003605   0.080619   0.417118  -0.373233
   11  C  1 YY   -0.276826  -0.002954  -0.095209  -0.394378  -0.395062
   12  C  1 ZZ   -0.003376  -0.000628   0.015333  -0.022207   0.866443
   13  C  1 XY   -0.063097  -0.022539   0.458919  -0.108284  -0.012236
   14  C  1 XZ   -0.102794   0.007795  -0.225508  -0.098546   0.012492
   15  C  1 YZ   -0.220808  -0.006339   0.087778  -0.226281  -0.008802
   16  H  2  S   -0.209867   0.011886  -0.370290  -0.328747   0.165661
   17  H  2  S   -0.007507  -0.003271   0.035125   0.029614  -0.047454
   18  H  2  X   -0.109185  -0.170419  -0.304579  -0.136783   0.055400
   19  H  2  Y   -0.074072   0.538140   0.129784  -0.284562   0.008085
   20  H  2  Z   -0.030702   0.002806  -0.024326  -0.014416  -0.226836
   21  C  3  S   -0.000071   0.000006  -0.000257   0.000056  -0.008553
   22  C  3  S    0.001548   0.000153  -0.005832   0.013527  -0.513230
   23  C  3  X    0.029769  -0.001761   0.069561   0.030924  -0.005591
   24  C  3  Y    0.062660   0.001417  -0.025949   0.068164   0.002008
   25  C  3  Z   -0.003090  -0.000400   0.009667  -0.017321   0.610517
   26  C  3  S    0.015438   0.001392  -0.027313   0.061374  -1.860672
   27  C  3  X   -0.036713   0.008583  -0.240819  -0.099011  -0.005300
   28  C  3  Y   -0.087119  -0.009909   0.103223  -0.251643  -0.009843
   29  C  3  Z    0.003819   0.000191  -0.019587   0.059816  -2.297318
   30  C  3 XX    0.467014  -0.008423  -0.087701  -0.358746  -0.086674
   31  C  3 YY   -0.466788   0.008628   0.082832   0.361767  -0.074680
   32  C  3 ZZ   -0.000038  -0.000069   0.001922  -0.001796   0.095320
   33  C  3 XY   -0.102631   0.054593  -0.428001   0.092479   0.007241
   34  C  3 XZ    0.006049  -0.002600   0.081174   0.034212  -0.001376
   35  C  3 YZ    0.015933   0.002966  -0.033963   0.084555   0.003406
   36  H  4  S    0.306108   0.013165  -0.090209   0.491308   0.185901
   37  H  4  S    0.019319   0.000033  -0.000446  -0.031973  -0.044158
   38  H  4  X   -0.039986   0.577401  -0.209376  -0.129611  -0.015707
   39  H  4  Y   -0.174691  -0.126145   0.103034  -0.303797  -0.070053
   40  H  4  Z    0.045110  -0.000733  -0.010302   0.040413  -0.216068
   41  H  5  S   -0.092740  -0.025050   0.465221  -0.169571   0.153557
   42  H  5  S   -0.006549   0.003862  -0.046060   0.008641  -0.043205
   43  H  5  X   -0.003769  -0.376129  -0.317947  -0.079358  -0.045684
   44  H  5  Y   -0.087074  -0.442771   0.110652  -0.256333   0.028448
   45  H  5  Z   -0.012484  -0.001840   0.028430  -0.007736  -0.217285
   46  N  6  S    0.000094   0.000009  -0.000278   0.000616  -0.021148
   47  N  6  S    0.004118   0.000503  -0.013227   0.025639  -0.913054
   48  N  6  X    0.002616   0.000967  -0.028266  -0.011482  -0.000932
   49  N  6  Y    0.004121  -0.001268   0.012417  -0.029974  -0.001181
   50  N  6  Z   -0.001194  -0.000228   0.005102  -0.006515   0.242583
   51  N  6  S   -0.013250  -0.001193   0.039267  -0.096436   3.421686
   52  N  6  X   -0.001088  -0.002938   0.075840   0.030006   0.005443
   53  N  6  Y    0.001772   0.003789  -0.034259   0.081046   0.003266
   54  N  6  Z    0.005622   0.000589  -0.016599   0.036050  -1.267110
   55  N  6 XX   -0.609632   0.009046   0.076954   0.328928  -0.032196
   56  N  6 YY    0.610152  -0.008925  -0.079568  -0.326872  -0.041827
   57  N  6 ZZ   -0.000052  -0.000059   0.001190  -0.000156   0.020938
   58  N  6 XY    0.133985  -0.057328   0.393156  -0.084250  -0.005786
   59  N  6 XZ    0.055379  -0.001419   0.077105   0.036396  -0.012839
   60  N  6 YZ    0.115004   0.000355  -0.025811   0.072850   0.001975

                     46         47         48         49         50
                    2.2551     2.2580     2.5185     2.6483     2.6498
                     A          A          A          A          A   
    1  C  1  S    0.000020   0.000497   0.030068  -0.001442  -0.000004
    2  C  1  S    0.004925   0.004564   0.047614  -0.004260   0.002110
    3  C  1  X    0.021033   0.004241  -0.000108   0.016201  -0.158152
    4  C  1  Y   -0.001506   0.019409   0.001005   0.153196   0.016898
    5  C  1  Z   -0.002212   0.000805  -0.187266   0.004314  -0.000703
    6  C  1  S   -0.045708  -0.030507  -1.399182   0.049832  -0.002389
    7  C  1  X   -0.581944  -0.086679   0.000274   0.068446  -0.638518
    8  C  1  Y    0.078906  -0.579058   0.009977   0.640646   0.067544
    9  C  1  Z   -0.004610  -0.010972  -1.213648   0.024240  -0.000633
   10  C  1 XX   -0.002268   0.014588  -0.144891  -0.340998   0.188373
   11  C  1 YY   -0.009708  -0.018527  -0.133481   0.339580  -0.186422
   12  C  1 ZZ    0.011635   0.004304   0.298126  -0.003243  -0.000569
   13  C  1 XY    0.016135  -0.013603   0.001224   0.216777   0.387180
   14  C  1 XZ   -0.409983  -0.058244   0.001345  -0.006136   0.049994
   15  C  1 YZ    0.058993  -0.411537  -0.001011  -0.049795  -0.004503
   16  H  2  S   -0.013841  -0.007041   0.063185  -0.006328   0.009313
   17  H  2  S    0.309852   0.156116  -0.120341  -0.183645   0.402676
   18  H  2  X    0.163431  -0.026159   0.182224   0.272227  -0.064292
   19  H  2  Y   -0.088413   0.277650   0.049551  -0.588204  -0.325670
   20  H  2  Z    0.515093   0.259038   0.543480  -0.008813   0.011534
   21  C  3  S    0.000083  -0.000190  -0.098373   0.001877  -0.000043
   22  C  3  S   -0.015627  -0.007018  -0.239458   0.010274  -0.001745
   23  C  3  X    0.276909   0.039339   0.000877   0.017216  -0.170341
   24  C  3  Y   -0.039988   0.278890   0.000742   0.170503   0.018975
   25  C  3  Z    0.011401   0.003940  -0.201742   0.005409  -0.000728
   26  C  3  S   -0.017526   0.003999   0.505163  -0.006729   0.004367
   27  C  3  X    0.294281   0.044743   0.001676  -0.009675   0.081765
   28  C  3  Y   -0.038615   0.290170  -0.003571  -0.082464  -0.007820
   29  C  3  Z   -0.068389  -0.034649  -1.705127   0.053619  -0.000882
   30  C  3 XX   -0.029763  -0.063895  -0.325938   0.081962  -0.042065
   31  C  3 YY    0.030825   0.063313  -0.329970  -0.072303   0.042646
   32  C  3 ZZ    0.002647   0.001303   0.157053  -0.002925  -0.000011
   33  C  3 XY   -0.072593   0.039367  -0.000088  -0.049461  -0.088092
   34  C  3 XZ    0.254510   0.036594   0.003271   0.063004  -0.624658
   35  C  3 YZ   -0.036908   0.260394   0.002411   0.622560   0.069439
   36  H  4  S    0.003028   0.027228   0.065554   0.005395   0.000010
   37  H  4  S   -0.020647  -0.349400  -0.112914   0.442905  -0.045698
   38  H  4  X    0.300614   0.006790  -0.035642   0.103943   0.688618
   39  H  4  Y   -0.051446   0.132152  -0.179650   0.162886  -0.163579
   40  H  4  Z   -0.041579  -0.579825   0.541514   0.001454   0.000163
   41  H  5  S    0.020827  -0.012330   0.063951  -0.008673  -0.007883
   42  H  5  S   -0.285245   0.193168  -0.119636  -0.257062  -0.360068
   43  H  5  X    0.195438   0.117472  -0.141305  -0.460283   0.162891
   44  H  5  Y    0.051508   0.237371   0.114369  -0.361779   0.406056
   45  H  5  Z   -0.490811   0.322797   0.539474  -0.009679  -0.007507
   46  N  6  S   -0.000308  -0.000155  -0.032135   0.000635  -0.000077
   47  N  6  S   -0.015876  -0.006131  -0.464848   0.011743   0.000946
   48  N  6  X   -0.013057  -0.001626  -0.000391  -0.012518   0.123254
   49  N  6  Y    0.002353  -0.014761  -0.000747  -0.123013  -0.013637
   50  N  6  Z    0.002564   0.000984   0.107645  -0.000538  -0.000396
   51  N  6  S    0.073690   0.031125   1.916997  -0.057394  -0.000971
   52  N  6  X   -0.276070  -0.040914  -0.001833  -0.010852   0.113939
   53  N  6  Y    0.037723  -0.275104   0.001174  -0.113095  -0.013230
   54  N  6  Z   -0.023111  -0.009143  -0.828931   0.022572   0.000490
   55  N  6 XX    0.017431   0.034531  -0.228645  -0.023613   0.014794
   56  N  6 YY   -0.015291  -0.034080  -0.226942   0.032277  -0.015870
   57  N  6 ZZ   -0.001241  -0.000297   0.372423  -0.009135   0.000427
   58  N  6 XY    0.039322  -0.021288   0.000019   0.017905   0.031861
   59  N  6 XZ    0.634277   0.091544   0.003834   0.054055  -0.538915
   60  N  6 YZ   -0.089923   0.637281   0.001285   0.537668   0.060249

                     51         52         53         54         55
                    2.7726     2.9320     2.9367     3.0216     3.2702
                     A          A          A          A          A   
    1  C  1  S    0.067738  -0.003462  -0.002314  -0.129193  -0.017826
    2  C  1  S   -0.245024   0.021687   0.012689   0.666295   0.374053
    3  C  1  X    0.001391   0.176787  -0.045656  -0.006106   0.013676
    4  C  1  Y    0.001202   0.051171   0.181404   0.001157   0.025641
    5  C  1  Z   -0.155717  -0.009828  -0.005938  -0.139456  -0.611175
    6  C  1  S   -2.476576   0.034021   0.018580   1.410945  -0.938051
    7  C  1  X    0.000755  -0.082540   0.026172   0.005238   0.015628
    8  C  1  Y   -0.001483  -0.017727  -0.081293   0.016481   0.028838
    9  C  1  Z   -0.606346  -0.003188  -0.008666   0.090116  -0.962560
   10  C  1 XX    0.250265   0.324629   0.263861   0.000427   0.425598
   11  C  1 YY    0.250780  -0.311555  -0.264318   0.022218   0.373033
   12  C  1 ZZ   -0.293128  -0.012802  -0.004127  -0.250115  -0.890323
   13  C  1 XY    0.002915   0.306560  -0.367376  -0.013542  -0.006199
   14  C  1 XZ   -0.002328   0.566750  -0.155465  -0.021274  -0.020859
   15  C  1 YZ    0.002528   0.151648   0.571572  -0.025996  -0.032021
   16  H  2  S    0.076091  -0.050955  -0.007081  -0.257303  -0.198501
   17  H  2  S    0.172322  -0.039562  -0.012667  -0.304801  -0.254330
   18  H  2  X   -0.219668   0.040858  -0.106033   0.536315   0.401941
   19  H  2  Y   -0.073742  -0.010938   0.368319   0.171572   0.130643
   20  H  2  Z   -0.180645  -0.449418  -0.026656  -0.167039  -0.202838
   21  C  3  S   -0.147998   0.000177   0.000270   0.045741  -0.136587
   22  C  3  S   -0.883477  -0.022045  -0.009436  -0.949242   1.206317
   23  C  3  X   -0.000553   0.098853  -0.025928  -0.001941  -0.000597
   24  C  3  Y    0.001235   0.026808   0.096575  -0.002430  -0.001253
   25  C  3  Z   -0.873346  -0.024657  -0.007390  -0.724919   0.483013
   26  C  3  S   -1.724951  -0.032478  -0.003347  -1.345044   1.813896
   27  C  3  X   -0.000634   0.220827  -0.061042  -0.007764  -0.005134
   28  C  3  Y    0.001983   0.058539   0.222395  -0.009349  -0.007509
   29  C  3  Z   -3.507986  -0.000751  -0.001906   0.111122  -1.100728
   30  C  3 XX   -0.271672  -0.020560  -0.021059   0.542718  -0.952737
   31  C  3 YY   -0.271863   0.042047   0.030123   0.540980  -0.949265
   32  C  3 ZZ    0.027931  -0.013097  -0.003902  -0.525049   0.887223
   33  C  3 XY   -0.000375  -0.030478   0.035943   0.000906   0.000228
   34  C  3 XZ   -0.002999   0.812068  -0.217682  -0.023149  -0.008199
   35  C  3 YZ    0.005819   0.220494   0.811394  -0.022943  -0.011220
   36  H  4  S    0.074301   0.013166   0.035958  -0.251711  -0.152079
   37  H  4  S    0.175598   0.005156   0.019673  -0.293818  -0.211932
   38  H  4  X    0.046919   0.336022  -0.172002  -0.121627  -0.073899
   39  H  4  Y    0.228928  -0.081437   0.038728  -0.536757  -0.343796
   40  H  4  Z   -0.183321   0.195328   0.400435  -0.186727  -0.183298
   41  H  5  S    0.076623   0.015625  -0.040134  -0.261870  -0.184375
   42  H  5  S    0.174066   0.002030  -0.030497  -0.306400  -0.241317
   43  H  5  X    0.173682   0.201131   0.118266  -0.436217  -0.305159
   44  H  5  Y   -0.156881   0.245378   0.171806   0.368081   0.265727
   45  H  5  Z   -0.183589   0.234768  -0.373090  -0.180146  -0.194137
   46  N  6  S   -0.053563  -0.001043  -0.000410  -0.025472  -0.001460
   47  N  6  S   -1.036166   0.004864   0.002995   0.226161  -0.517114
   48  N  6  X    0.000476  -0.134853   0.035979   0.003774   0.001354
   49  N  6  Y   -0.000975  -0.036704  -0.134435   0.003749   0.001901
   50  N  6  Z   -0.167085  -0.013972  -0.004687  -0.532000   0.698570
   51  N  6  S    5.209852   0.033295   0.008409   0.995207  -0.033715
   52  N  6  X    0.001042  -0.274689   0.074449   0.008220   0.003567
   53  N  6  Y   -0.002235  -0.073922  -0.275105   0.008760   0.005002
   54  N  6  Z   -2.317310  -0.020941  -0.005048  -0.637354   0.277260
   55  N  6 XX   -0.468559  -0.001173   0.004545  -0.345138   0.263976
   56  N  6 YY   -0.468540  -0.021811  -0.012302  -0.344601   0.262852
   57  N  6 ZZ    1.152011   0.022119   0.006355   0.728758  -0.691832
   58  N  6 XY    0.000149   0.010027  -0.011811  -0.000318  -0.000088
   59  N  6 XZ   -0.002565   0.630665  -0.168951  -0.017314  -0.005944
   60  N  6 YZ    0.005188   0.170909   0.628572  -0.017583  -0.008287

                     56         57         58         59         60
                    3.3540     3.3602     4.0050     4.2024     4.6444
                     A          A          A          A          A   
    1  C  1  S   -0.000904   0.001434   0.115610  -0.307515  -0.369119
    2  C  1  S    0.009215  -0.038450  -0.437792   1.935380   1.929979
    3  C  1  X    0.717812   0.359575  -0.001026   0.000040   0.000393
    4  C  1  Y   -0.361866   0.734270  -0.000585   0.002626   0.003184
    5  C  1  Z   -0.006150   0.030500  -0.310596   0.216240  -0.189390
    6  C  1  S    0.018949   0.038532  -3.251707  -0.460315   3.423911
    7  C  1  X    0.597868   0.295731   0.000140  -0.001355   0.001718
    8  C  1  Y   -0.300699   0.602711  -0.000212  -0.001496   0.000825
    9  C  1  Z   -0.000725   0.039277  -1.049360  -0.545402   0.741133
   10  C  1 XX    0.117689   0.762857   0.434330  -1.416265  -1.484588
   11  C  1 YY   -0.123377  -0.806082   0.436389  -1.422025  -1.491575
   12  C  1 ZZ    0.004835   0.045627   0.107192  -0.914600  -1.836813
   13  C  1 XY    0.908688  -0.137863  -0.000590  -0.000799  -0.000273
   14  C  1 XZ   -0.651169  -0.328359   0.000178   0.002172   0.002502
   15  C  1 YZ    0.320695  -0.655905  -0.000009  -0.000497  -0.001011
   16  H  2  S   -0.522896  -0.505085   0.008506   0.228397   0.084107
   17  H  2  S   -0.399000  -0.381901   0.147493  -0.210623  -0.291201
   18  H  2  X    0.707700   0.689971   0.026282  -0.209767  -0.197380
   19  H  2  Y    0.262494   0.203181   0.008795  -0.069380  -0.065708
   20  H  2  Z   -0.246842  -0.231152  -0.035572   0.031622   0.074424
   21  C  3  S    0.000970   0.005043   0.106560  -0.321168   0.311982
   22  C  3  S   -0.004435  -0.037472  -1.037298   1.725109  -1.743587
   23  C  3  X   -0.024930  -0.012193  -0.000070   0.000086  -0.000004
   24  C  3  Y    0.012498  -0.024760  -0.000011  -0.000006   0.000012
   25  C  3  Z   -0.001903  -0.012216   0.483990  -0.113819   0.126067
   26  C  3  S   -0.007150  -0.065606  -2.948293  -1.717192  -0.570461
   27  C  3  X   -0.124078  -0.062135   0.000564  -0.000364  -0.001351
   28  C  3  Y    0.061477  -0.124924   0.000347   0.000073  -0.000822
   29  C  3  Z    0.011045   0.052591  -5.053646  -3.136737   2.253521
   30  C  3 XX   -0.002357  -0.012947   0.372305  -1.061836   0.980149
   31  C  3 YY    0.012621   0.079010   0.371991  -1.061215   0.980732
   32  C  3 ZZ   -0.003406  -0.032880   1.083822  -1.492932   2.148161
   33  C  3 XY   -0.053384   0.007619   0.000086   0.000038   0.000024
   34  C  3 XZ   -0.156523  -0.079731  -0.000115   0.000682   0.001229
   35  C  3 YZ    0.075020  -0.155355  -0.000210   0.000105   0.000252
   36  H  4  S   -0.192592   0.734998   0.005333   0.232889   0.091078
   37  H  4  S   -0.146767   0.554318   0.150186  -0.215552  -0.293072
   38  H  4  X   -0.082601   0.204557  -0.006177   0.045619   0.043153
   39  H  4  Y   -0.264414   1.033705  -0.028511   0.217315   0.206262
   40  H  4  Z   -0.084727   0.336047  -0.037453   0.029024   0.077806
   41  H  5  S    0.702051  -0.182069   0.006523   0.226228   0.083568
   42  H  5  S    0.537037  -0.138181   0.148801  -0.211428  -0.289358
   43  H  5  X    0.750457  -0.210923  -0.021780   0.165593   0.154687
   44  H  5  Y   -0.686157   0.147912   0.019191  -0.146762  -0.137812
   45  H  5  Z    0.321634  -0.074700  -0.036970   0.027550   0.076584
   46  N  6  S   -0.000308   0.000190  -0.535796  -0.225805   0.048924
   47  N  6  S    0.004444   0.019991   0.178831   0.195680  -0.332407
   48  N  6  X    0.028279   0.014382   0.000053  -0.000168  -0.000296
   49  N  6  Y   -0.013531   0.027964   0.000058  -0.000012  -0.000088
   50  N  6  Z   -0.002679  -0.023381   0.542322  -0.251786   0.545788
   51  N  6  S   -0.004726  -0.012667   8.346600   4.985421  -2.275112
   52  N  6  X    0.073229   0.036904  -0.000236   0.000103   0.000438
   53  N  6  Y   -0.035896   0.073461  -0.000129  -0.000046   0.000338
   54  N  6  Z    0.000837  -0.004415  -2.380380  -1.689421   0.796962
   55  N  6 XX    0.000155   0.006387  -1.577400  -0.750880   0.264931
   56  N  6 YY   -0.004515  -0.022625  -1.577349  -0.750988   0.264836
   57  N  6 ZZ    0.001187   0.021012  -1.646697  -0.354925  -0.189834
   58  N  6 XY    0.016880  -0.002441  -0.000013  -0.000014  -0.000011
   59  N  6 XZ   -0.116628  -0.059036   0.000030   0.000285   0.000370
   60  N  6 YZ    0.056359  -0.115910  -0.000047   0.000056  -0.000012
 ...... END OF RHF CALCULATION ......
 STEP CPU TIME =     5.45 TOTAL CPU TIME =        5.6 (    0.1 MIN)
 TOTAL WALL CLOCK TIME=        5.6 SECONDS, CPU UTILIZATION IS  99.82%

     ---------------------------------------------------------------------
     PROPERTIES FOR THE B3LYP    DFT FUNCTIONAL (RHF  TYPE) DENSITY MATRIX
     ---------------------------------------------------------------------

          -----------------
          ENERGY COMPONENTS
          -----------------

         WAVEFUNCTION NORMALIZATION =       1.0000000000

                ONE ELECTRON ENERGY =    -293.0724572159
                TWO ELECTRON ENERGY =     102.2177044967
           NUCLEAR REPULSION ENERGY =      58.1770444511
                                      ------------------
                       TOTAL ENERGY =    -132.6777082680

 ELECTRON-ELECTRON POTENTIAL ENERGY =     102.2177044967
  NUCLEUS-ELECTRON POTENTIAL ENERGY =    -424.4897257326
   NUCLEUS-NUCLEUS POTENTIAL ENERGY =      58.1770444511
                                      ------------------
             TOTAL POTENTIAL ENERGY =    -264.0949767847
               TOTAL KINETIC ENERGY =     131.4172685167
                 VIRIAL RATIO (V/T) =       2.0095911273

          ---------------------------------------
          MULLIKEN AND LOWDIN POPULATION ANALYSES
          ---------------------------------------

     ATOMIC MULLIKEN POPULATION IN EACH MOLECULAR ORBITAL

                      1          2          3          4          5

                  2.000000   2.000000   2.000000   2.000000   2.000000

    1            -0.000014   1.996495   0.002471  -0.005882   1.208503
    2             0.000000   0.000483   0.000006   0.002732   0.118231
    3            -0.001281   0.002037   2.000926   0.597319   0.313535
    4             0.000000   0.000489   0.000006   0.002817   0.120967
    5             0.000000   0.000481   0.000006   0.002765   0.118402
    6             2.001295   0.000014  -0.003415   1.400248   0.120362

                      6          7          8          9         10

                  2.000000   2.000000   2.000000   2.000000   2.000000

    1             0.917897   1.008378   1.006396   0.068312   0.085322
    2             0.125843   0.053012   0.435790   0.004366   0.021285
    3             0.618004   0.199019   0.202847   0.248754   0.745986
    4             0.120958   0.470156   0.022202   0.004328   0.090155
    5             0.113987   0.219498   0.280964   0.004332   0.024911
    6             0.103310   0.049937   0.051802   1.669908   1.032342

                     11

                  2.000000

    1             0.087414
    2             0.071482
    3             0.742251
    4             0.000319
    5             0.067969
    6             1.030566

               ----- POPULATIONS IN EACH AO -----
                             MULLIKEN      LOWDIN
              1  C  1  S      1.99192     1.97837
              2  C  1  S      0.68555     0.34841
              3  C  1  X      0.73103     0.63006
              4  C  1  Y      0.73301     0.63096
              5  C  1  Z      0.66414     0.57701
              6  C  1  S      0.61570     0.32702
              7  C  1  X      0.35220     0.47338
              8  C  1  Y      0.35010     0.47172
              9  C  1  Z      0.25848     0.39089
             10  C  1 XX     -0.00892     0.14076
             11  C  1 YY     -0.00863     0.14169
             12  C  1 ZZ     -0.00496     0.14812
             13  C  1 XY      0.00552     0.00962
             14  C  1 XZ      0.00509     0.01138
             15  C  1 YZ      0.00507     0.01133
             16  H  2  S      0.51502     0.47658
             17  H  2  S      0.30649     0.34781
             18  H  2  X      0.00648     0.01676
             19  H  2  Y      0.00265     0.00735
             20  H  2  Z      0.00260     0.00698
             21  C  3  S      1.99208     1.97394
             22  C  3  S      0.73332     0.37805
             23  C  3  X      0.58887     0.52843
             24  C  3  Y      0.58874     0.52834
             25  C  3  Z      0.81371     0.70680
             26  C  3  S      0.34318     0.29087
             27  C  3  X      0.34134     0.38637
             28  C  3  Y      0.34143     0.38625
             29  C  3  Z     -0.06464     0.31512
             30  C  3 XX     -0.02664     0.10664
             31  C  3 YY     -0.02662     0.10663
[...]
                          X        Y        Z        X        Y        Z
  1   C            X 0.515599 0.003121-0.001216-0.239420-0.063457 0.070078
                   Y 0.003121 0.527952 0.003946-0.063724-0.069636 0.023036
                   Z-0.001216 0.003946 0.505784 0.069934 0.023015-0.074025
  2   H            X-0.239420-0.063724 0.069934 0.257415 0.069792-0.078789
                   Y-0.063457-0.069636 0.023015 0.069792 0.070748-0.026060
                   Z 0.070078 0.023036-0.074025-0.078789-0.026060 0.084878
  3   C            X-0.072704-0.000132 0.000105 0.004254 0.002075 0.032723
                   Y-0.000200-0.072875 0.000038 0.002114-0.001376 0.010816
                   Z 0.000064-0.000348-0.278325 0.003815 0.001333-0.019413
  4   H            X-0.056765-0.044430-0.015501-0.003996-0.025483-0.010543
                   Y-0.044517-0.261694-0.074416-0.000568-0.006958-0.001825
                   Z-0.015330-0.074444-0.073299 0.000656 0.010753 0.004131
  5   H            X-0.166007 0.105205-0.053291-0.017689 0.017530-0.009499
                   Y 0.105063-0.143079 0.047407-0.007137 0.006477-0.004687
                   Z-0.053538 0.047777-0.072663 0.006968-0.008168 0.004127
  6   N            X 0.019297-0.000041-0.000035-0.000566-0.000457-0.003970
                   Y-0.000010 0.019336 0.000010-0.000477 0.000744-0.001280
                   Z-0.000060 0.000034-0.007468-0.002585-0.000873 0.000301

                                   3                          4
                               C                          H         
                          X        Y        Z        X        Y        Z
  3   C            X 0.106505-0.000070 0.000118-0.001657 0.001334-0.007178
                   Y-0.000070 0.106823 0.000119 0.001248 0.004463-0.034137
                   Z 0.000118 0.000119 1.606386-0.000819-0.004086-0.019593
  4   H            X-0.001657 0.001248-0.000819 0.056450 0.048675 0.017274
                   Y 0.001334 0.004463-0.004086 0.048675 0.280503 0.083546
                   Z-0.007178-0.034137-0.019593 0.017274 0.083546 0.084466
  5   H            X 0.001592-0.003115-0.003251 0.005136-0.004635 0.003714
                   Y-0.003238 0.000997 0.002990 0.020274-0.015702 0.010147
                   Z-0.025955 0.023107-0.019460 0.009050-0.005884 0.004114
  6   N            X-0.037989 0.000022 0.000068 0.000831-0.000287 0.000865
                   Y 0.000032-0.038032-0.000006-0.000285-0.000614 0.004133
                   Z 0.000187 0.000057-1.269568 0.000540 0.002665 0.000180

                                   5                          6
                               H                          N         
                          X        Y        Z        X        Y        Z
  5   H            X 0.176945-0.115737 0.060308 0.000025 0.000752 0.002020
                   Y-0.115737 0.151140-0.054009 0.000775 0.000167-0.001849
                   Z 0.060308-0.054009 0.083691 0.003169-0.002822 0.000189
  6   N            X 0.000025 0.000775 0.003169 0.018401-0.000012-0.000096
                   Y 0.000752 0.000167-0.002822-0.000012 0.018398-0.000035
                   Z 0.002020-0.001849 0.000189-0.000096-0.000035 1.276335

          ------------------------          ----------------
          DIPOLE DERIVATIVE TENSOR          (DEBYE/ANGSTROM)
          ------------------------          ----------------

        ATOM                 MU-X           MU-Y           MU-Z
     C          D/DX     0.617041053   -0.001322382   -0.001205679
                D/DY    -0.002546678    0.600506681   -0.004126403
                D/DZ    -0.003610356   -0.006503152    0.170035154
     H          D/DX    -0.057210576   -0.183097622    0.196991732
                D/DY    -0.181834217    0.437146704    0.063901537
                D/DZ     0.070244613    0.023298374    0.093112141
     C          D/DX     0.337229786   -0.000067275   -0.003729046
                D/DY    -0.000098972    0.336484199   -0.000897881
                D/DZ    -0.000119916   -0.004597756    0.927770684
     H          D/DX     0.470407565   -0.119013672   -0.040828379
                D/DY    -0.120368985   -0.079919865   -0.193881535
                D/DZ    -0.013468751   -0.061222889    0.097109103
     H          D/DX     0.152815000    0.303542638   -0.154346813
                D/DY     0.305244517    0.225391577    0.135274800
                D/DZ    -0.053123948    0.046032547    0.092314875
     N          D/DX    -1.520310485   -0.000394013    0.002884922
                D/DY    -0.000387779   -1.519946619   -0.000370888
                D/DZ     0.000078816    0.002986256   -1.380844069

          --------------------------------------------------------
          NORMAL COORDINATE ANALYSIS IN THE HARMONIC APPROXIMATION
          --------------------------------------------------------

     *******************************************************
     * THIS IS NOT A STATIONARY POINT ON THE MOLECULAR PES *
     *     THE VIBRATIONAL ANALYSIS IS NOT VALID !!!       *
     *******************************************************

          ATOMIC WEIGHTS (AMU)

    1     C                12.00000
    2     H                 1.00782
    3     C                12.00000
    4     H                 1.00782
    5     H                 1.00782
    6     N                14.00307

 * * * WARNING, MODE 7 HAS BEEN CHOSEN AS A VIBRATION
          WHILE MODE 1 IS ASSUMED TO BE A TRANSLATION/ROTATION.
 PLEASE VERIFY THE PROGRAM'S DECISION MANUALLY!


 MODES 1 TO 6 ARE TAKEN AS ROTATIONS AND TRANSLATIONS.

 ANALYZING SYMMETRY OF NORMAL MODES...

     FREQUENCIES IN CM**-1, IR INTENSITIES IN DEBYE**2/AMU-ANGSTROM**2,
     REDUCED MASSES IN AMU.

     *******************************************************
     * THIS IS NOT A STATIONARY POINT ON THE MOLECULAR PES *
     *     THE VIBRATIONAL ANALYSIS IS NOT VALID !!!       *
     *******************************************************

                          1           2           3           4           5
       FREQUENCY:         0.02        0.02        0.01       49.69       54.46  
        SYMMETRY:         A           A           A           A           A   
    REDUCED MASS:      6.83825     6.83906     6.83977     4.50037     4.53672
    IR INTENSITY:      0.00000     0.00000     0.00000     0.26695     0.26776

  1   C            X -0.08122189  0.13005607 -0.02919023 -0.07912040 -0.15443385
                   Y -0.00332617  0.03219889  0.15269075 -0.15463310  0.07906744
                   Z  0.13327725  0.08009564 -0.01398747 -0.00013213  0.00008002
  2   H            X -0.08121556  0.13004576 -0.02919179 -0.09851042 -0.18833033
                   Y -0.00333301  0.03221051  0.15268847 -0.18965260  0.09024639
                   Z  0.13328944  0.08007675 -0.01399234 -0.08140363 -0.07901786
  3   C            X -0.08123996  0.13008557 -0.02919487  0.00555904  0.00984043
                   Y -0.00332428  0.03220500  0.15273223  0.01084268 -0.00506359
                   Z  0.13327901  0.08009505 -0.01398821 -0.00002096 -0.00003956
  4   H            X -0.08122647  0.13006356 -0.02918258 -0.09676565 -0.19664753
                   Y -0.00332466  0.03219343  0.15268185 -0.19163278  0.09877923
                   Z  0.13327693  0.08010490 -0.01396234  0.11217557 -0.03023832
  5   H            X -0.08121318  0.13003987 -0.02919280 -0.09795759 -0.18510951
                   Y -0.00331972  0.03218645  0.15267771 -0.19083646  0.10250068
                   Z  0.13327177  0.08010420 -0.01400570 -0.02878852  0.10925966
  6   N            X -0.08126011  0.13011786 -0.02920001  0.08411824  0.16484899
                   Y -0.00331781  0.03220282  0.15277203  0.16430528 -0.08435746
                   Z  0.13328259  0.08009622 -0.01398830 -0.00001367 -0.00003394

 TRANS. SAYVETZ    X -3.33299515  5.33695131 -1.19776343 -0.00035098 -0.00127740
                   Y -0.13632040  1.32113124  6.26598531 -0.00130535  0.00059037
                   Z  5.46800737  3.28604728 -0.57387603 -0.00002964  0.00001384
               TOTAL  6.40519668  6.40519662  6.40519655  0.00135204  0.00140729

   ROT. SAYVETZ    X -0.00029600 -0.00019889 -0.00316170-12.46773603  6.37950901
                   Y -0.00147388  0.00239244 -0.00037996  6.38094495 12.46246735
                   Z -0.00004791  0.00008576  0.00003782  0.00707897 -0.03848140
               TOTAL  0.00150407  0.00240223  0.00318467 14.00574704 14.00045387

                          6           7           8           9          10
       FREQUENCY:       358.20      406.24      408.90      934.96     1102.23  
        SYMMETRY:         A           A           A           A           A   
    REDUCED MASS:      1.01453     3.91705     3.83568     4.49737     1.38007
    IR INTENSITY:      0.00013     0.00919     0.00838     0.04543     0.06190

  1   C            X  0.00072926 -0.02327462 -0.04805100 -0.00024045  0.10987270
                   Y -0.00192643 -0.04693450  0.02372625 -0.00035970 -0.06144888
                   Z  0.00005876 -0.00031804  0.00020404  0.19751890  0.00103127
  2   H            X -0.17087219 -0.06414285 -0.15722273  0.00961908 -0.14301144
                   Y  0.53162657 -0.15353076  0.11957852  0.00360391  0.19376930
                   Z  0.01392175 -0.19398533 -0.19615693  0.22990610 -0.40818895
  3   C            X -0.01478766  0.09943682  0.19967172  0.00006617 -0.07990291
                   Y  0.01379760  0.19977652 -0.09864464  0.00023257  0.04511159
                   Z -0.00001437 -0.00003721 -0.00007229 -0.09100097 -0.00013421
  4   H            X  0.57655983 -0.08388489 -0.09077520 -0.00116620 -0.27407367
                   Y -0.12585005 -0.13580694  0.05899174 -0.00920299  0.09064251
                   Z  0.01289743  0.27165925 -0.07035828  0.22504117 -0.18529806
  5   H            X -0.37059017 -0.06079170 -0.17297728 -0.00624489 -0.12238600
                   Y -0.43195646 -0.12837528  0.02953770  0.00749696  0.01359136
                   Z -0.02711653 -0.07260915  0.26632715  0.22708575  0.58536685
  6   N            X  0.00950781 -0.05024280 -0.09962804 -0.00001160  0.01314398
                   Y -0.00829562 -0.10091508  0.04922369 -0.00002898 -0.00744756
                   Z -0.00001656 -0.00006027 -0.00009962 -0.14036359 -0.00018449

 TRANS. SAYVETZ    X -0.00019000 -0.00006048  0.00008090 -0.00002864  0.00000116
                   Y -0.00009494  0.00000161 -0.00000149 -0.00001854 -0.00000122
                   Z  0.00000108 -0.00000255 -0.00000349  0.00006381 -0.00000238
               TOTAL  0.00021240  0.00006055  0.00008099  0.00007236  0.00000292

   ROT. SAYVETZ    X  0.05731616 -0.66143621  0.37060438  0.00573878  0.12027433
                   Y  0.08720422  0.32386167  0.74027178 -0.00641822  0.21381316
                   Z  3.41585237 -0.08605458  0.31106789 -0.00064665  0.02952805
               TOTAL  3.41744600  0.74147800  0.88437161  0.00863396  0.24709085

                         11          12          13          14          15
       FREQUENCY:      1103.17     1443.24     1495.29     1498.89     2381.84  
        SYMMETRY:         A           A           A           A           A   
    REDUCED MASS:      1.38072     1.24006     1.03956     1.04046    12.57505
    IR INTENSITY:      0.05854     0.05102     0.21030     0.21708     0.17981

  1   C            X  0.06158121 -0.00051031 -0.04820264 -0.00073279 -0.00007018
                   Y  0.10932548 -0.00220536  0.00008452 -0.04915549  0.00004426
                   Z -0.00071385 -0.13009113  0.00094496  0.00254586 -0.02863865
  2   H            X -0.01247901  0.19398470 -0.08044699 -0.25968839 -0.00527817
                   Y -0.21107815  0.08086677 -0.26174704  0.60409852 -0.00160346
                   Z -0.44059359  0.46520265 -0.35480439 -0.12254946 -0.01536038
  3   C            X -0.04503294 -0.00035977 -0.02104872  0.00003859 -0.00000214
                   Y -0.08078386  0.00009777  0.00038131 -0.02052837  0.00001399
                   Z -0.00029607  0.00096071 -0.00004665 -0.00003932  0.22508537
  4   H            X -0.10850191 -0.04105104  0.65045877 -0.16229497  0.00110443
                   Y -0.08246643 -0.20566459 -0.16631598 -0.12599110  0.00504173
                   Z  0.58486085  0.46732892  0.06645232  0.34822354 -0.01571085
  5   H            X -0.17819935 -0.14324223  0.21518902  0.43027817  0.00488055
                   Y -0.22985087  0.15018279  0.42343409  0.31351604 -0.00413816
                   Z -0.12521649  0.47260727  0.27843352 -0.25290994 -0.01490501
  6   N            X  0.00735078  0.00004918  0.00283319 -0.00000213  0.00001039
                   Y  0.01321090 -0.00002093 -0.00006615  0.00274111  0.00000069
                   Z -0.00050565  0.00952719 -0.00005577 -0.00018790 -0.16503331

 TRANS. SAYVETZ    X -0.00000869  0.00001482  0.00000201 -0.00000050 -0.00001010
                   Y  0.00000162 -0.00000056 -0.00000145 -0.00000443  0.00000338
                   Z  0.00000009 -0.00002111  0.00000263 -0.00000168  0.00005162
               TOTAL  0.00000884  0.00002579  0.00000362  0.00000476  0.00005271

   ROT. SAYVETZ    X -0.19415586  0.03224196  0.00282622 -0.03171172 -0.00003132
                   Y  0.10839104 -0.00721188  0.05693341 -0.00513676  0.00081272
                   Z  0.01108413  0.00092873 -0.02875562 -0.00202882  0.00006380
               TOTAL  0.22263866  0.03305175  0.06384580  0.03218906  0.00081582

                         16          17          18
       FREQUENCY:      2920.75     2980.72     3024.28  
        SYMMETRY:         A           A           A   
    REDUCED MASS:      1.03702     1.10230     1.09927
    IR INTENSITY:      0.08329     0.05133     0.04462

  1   C            X  0.00126605 -0.08631724 -0.01917860
                   Y -0.02191661  0.01824792 -0.08411820
                   Z  0.04535076  0.00358164 -0.01110492
  2   H            X  0.53793593  0.62475342  0.22959179
                   Y  0.17380013  0.21736724  0.06087906
                   Z -0.20055033 -0.24369838 -0.08904221
  3   C            X  0.00005205 -0.00052799 -0.00010185
                   Y -0.00014145  0.00013993 -0.00048698
                   Z  0.00360621  0.00005950 -0.00070851
  4   H            X -0.06927386 -0.02570529  0.16930820
                   Y -0.33872909 -0.03303643  0.81660634
                   Z -0.11732251 -0.01317197  0.30025040
  5   H            X -0.48429933  0.43730031 -0.16889349
                   Y  0.42820038 -0.40372000  0.13204461
                   Z -0.22524495  0.21517175 -0.07844408
  6   N            X -0.00000479 -0.00016539 -0.00003132
                   Y -0.00004495  0.00003232 -0.00015533
                   Z -0.00286479 -0.00011911  0.00056832

 TRANS. SAYVETZ    X -0.00000949 -0.00000096  0.00000241
                   Y  0.00000529  0.00000088 -0.00000776
                   Z  0.00000012  0.00000094  0.00000008
               TOTAL  0.00001087  0.00000161  0.00000813

   ROT. SAYVETZ    X -0.00177793  0.00195563 -0.00438975
                   Y -0.00120927  0.00273219 -0.00055982
                   Z  0.00005767 -0.00279093  0.00179529
               TOTAL  0.00215098  0.00436791  0.00477561

 REFERENCE ON SAYVETZ CONDITIONS - A. SAYVETZ, J.CHEM.PHYS., 7, 383-389(1939).

 NOTE - THE MODES J,K ARE ORTHONORMALIZED ACCORDING TO
 SUM ON I   M(I) * (X(I,J)*X(I,K) + Y(I,J)*Y(I,K) + Z(I,J)*Z(I,K)) = DELTA(J,K)

  MODE FREQ(CM**-1)  SYMMETRY  RED. MASS  IR INTENS.
     1       0.024    A        6.838249    0.000000
     2       0.016    A        6.839064    0.000000
     3       0.013    A        6.839766    0.000000
     4      49.686    A        4.500368    0.266948
     5      54.464    A        4.536723    0.267757
     6     358.198    A        1.014533    0.000126
     7     406.243    A        3.917047    0.009192
     8     408.896    A        3.835680    0.008379
     9     934.959    A        4.497371    0.045430
    10    1102.225    A        1.380073    0.061898
    11    1103.169    A        1.380717    0.058540
    12    1443.244    A        1.240058    0.051016
    13    1495.289    A        1.039559    0.210303
    14    1498.889    A        1.040462    0.217082
    15    2381.841    A       12.575051    0.179806
    16    2920.749    A        1.037022    0.083292
    17    2980.718    A        1.102296    0.051335
    18    3024.280    A        1.099274    0.044616

     -------------------------------
     THERMOCHEMISTRY AT T=  298.15 K
     -------------------------------

 USING IDEAL GAS, RIGID ROTOR, HARMONIC NORMAL MODE APPROXIMATIONS.
 P=  1.01325E+05 PASCAL.
 ALL FREQUENCIES ARE SCALED BY   1.00000
 THE MOMENTS OF INERTIA ARE (IN AMU*BOHR**2)
     11.77555   196.74099   196.78492
 THE ROTATIONAL SYMMETRY NUMBER IS  1.0
 THE ROTATIONAL CONSTANTS ARE (IN GHZ)
    153.12136     9.16478     9.16274
 THE HARMONIC ZERO POINT ENERGY IS (SCALED BY   1.000)
        0.044881 HARTREE/MOLECULE     9850.251692 CM**-1/MOLECULE 
       28.163311 KCAL/MOL              117.835294 KJ/MOL

               Q               LN Q
 ELEC.     1.00000E+00       0.000000
 TRANS.    1.03288E+07      16.150450
 ROT.      7.64320E+03       8.941572
 VIB.      1.38358E+00       0.324675
 TOT.      1.09227E+11      25.416697

              E         H         G         CV        CP        S
           KJ/MOL    KJ/MOL    KJ/MOL   J/MOL-K   J/MOL-K   J/MOL-K
 ELEC.      0.000     0.000     0.000     0.000     0.000     0.000
 TRANS.     3.718     6.197   -40.036    12.472    20.786   155.067
 ROT.       3.718     3.718   -22.166    12.472    12.472    86.815
 VIB.     119.718   119.718   117.030    17.417    17.417     9.014
 TOTAL    127.155   129.634    54.829    42.361    50.675   250.897
 VIB. THERMAL CORRECTION E(T)-E(0) = H(T)-H(0) =  1882.617 J/MOL

              E         H         G         CV        CP        S
         KCAL/MOL  KCAL/MOL  KCAL/MOL CAL/MOL-K CAL/MOL-K CAL/MOL-K
 ELEC.      0.000     0.000     0.000     0.000     0.000     0.000
 TRANS.     0.889     1.481    -9.569     2.981     4.968    37.062
 ROT.       0.889     0.889    -5.298     2.981     2.981    20.749
 VIB.      28.613    28.613    27.971     4.163     4.163     2.154
 TOTAL     30.391    30.983    13.104    10.124    12.112    59.966
 VIB. THERMAL CORRECTION E(T)-E(0) = H(T)-H(0) =   449.956 CAL/MOL

     *******************************************************
     * THIS IS NOT A STATIONARY POINT ON THE MOLECULAR PES *
     *     THE VIBRATIONAL ANALYSIS IS NOT VALID !!!       *
     *******************************************************
 ......END OF NORMAL COORDINATE ANALYSIS......
 STEP CPU TIME =     0.00 TOTAL CPU TIME =      204.3 (    3.4 MIN)
 TOTAL WALL CLOCK TIME=      205.0 SECONDS, CPU UTILIZATION IS  99.64%
                995175  WORDS OF DYNAMIC MEMORY USED
 EXECUTION OF GAMESS TERMINATED NORMALLY Wed May  1 18:10:09 2013
 DDI: 263624 bytes (0.3 MB / 0 MWords) used by master data server.

 ----------------------------------------
 CPU timing information for all processes
 ========================================
 0: 203.356 + 0.927 = 204.284
 1: 0.00 + 0.01 = 0.01
 ----------------------------------------
 ddikick.x: exited gracefully.
unset echo
----- accounting info -----
Files used on the master node iMac-de-Eric-28321.local were:
-rw-r--r--  1 henon  staff       398  1 mai 18:06 .//ex.F05
-rw-r--r--  1 henon  staff  14221264  1 mai 18:10 .//ex.F08
-rw-r--r--  1 henon  staff   1341520  1 mai 18:10 .//ex.F10
-rw-r--r--  1 henon  staff   1797904  1 mai 18:10 .//ex.F22
-rw-r--r--  1 henon  staff     77073  1 mai 18:10 .//ex.dat
-rw-r--r--  1 henon  staff       398  1 mai 18:06 .//ex.inp
-rw-r--r--  1 henon  staff    272354  1 mai 18:10 .//ex.log
-rw-r--r--  1 henon  staff     15167  1 mai 18:10 .//ex.rst
ls: No match.
ls: No match.
ls: No match.
Mer  1 mai 2013 18:10:12 CEST
203.390u 0.949s 3:28.08 98.1%	0+0k 0+38io 0pf+0w
