total 12
drwxrwxr-x 2 henon henon 4096 15 avril 17:24 .
drwxrwxr-x 3 henon henon 4096 15 avril 17:24 ..
-rw-rw-r-- 1 henon henon  196 15 avril 17:24 n2.inp
-rw-rw-r-- 1 henon henon    0 15 avril 17:24 n2.out
 Entering Gaussian System, Link 0=g09
 Initial command:
 /home/projets/algogen/g09.D01/g09/l1.exe "/scratch_l/henon/n2_7010/Gau-7020.inp" -scrdir="/scratch_l/henon/n2_7010/"
 Entering Link 1 = /home/projets/algogen/g09.D01/g09/l1.exe PID=      7021.
  
 Copyright (c) 1988,1990,1992,1993,1995,1998,2003,2009,2013,
            Gaussian, Inc.  All Rights Reserved.
  
 This is part of the Gaussian(R) 09 program.  It is based on
 the Gaussian(R) 03 system (copyright 2003, Gaussian, Inc.),
 the Gaussian(R) 98 system (copyright 1998, Gaussian, Inc.),
 the Gaussian(R) 94 system (copyright 1995, Gaussian, Inc.),
 the Gaussian 92(TM) system (copyright 1992, Gaussian, Inc.),
 the Gaussian 90(TM) system (copyright 1990, Gaussian, Inc.),
 the Gaussian 88(TM) system (copyright 1988, Gaussian, Inc.),
 the Gaussian 86(TM) system (copyright 1986, Carnegie Mellon
 University), and the Gaussian 82(TM) system (copyright 1983,
 Carnegie Mellon University). Gaussian is a federally registered
 trademark of Gaussian, Inc.
  
 This software contains proprietary and confidential information,
 including trade secrets, belonging to Gaussian, Inc.
  
 This software is provided under written license and may be
 used, copied, transmitted, or stored only in accord with that
 written license.
  
 The following legend is applicable only to US Government
 contracts under FAR:
  
                    RESTRICTED RIGHTS LEGEND
  
 Use, reproduction and disclosure by the US Government is
 subject to restrictions as set forth in subparagraphs (a)
 and (c) of the Commercial Computer Software - Restricted
 Rights clause in FAR 52.227-19.
  
 Gaussian, Inc.
 340 Quinnipiac St., Bldg. 40, Wallingford CT 06492
  
  
 ---------------------------------------------------------------
 Warning -- This program may not be used in any manner that
 competes with the business of Gaussian, Inc. or will provide
 assistance to any competitor of Gaussian, Inc.  The licensee
 of this program is prohibited from giving any competitor of
 Gaussian, Inc. access to this program.  By using this program,
 the user acknowledges that Gaussian, Inc. is engaged in the
 business of creating and licensing software in the field of
 computational chemistry and represents and warrants to the
 licensee that it is not a competitor of Gaussian, Inc. and that
 it will not use this program in any manner prohibited above.
 ---------------------------------------------------------------
  

 Cite this work as:
 Gaussian 09, Revision D.01,
 M. J. Frisch, G. W. Trucks, H. B. Schlegel, G. E. Scuseria, 
 M. A. Robb, J. R. Cheeseman, G. Scalmani, V. Barone, B. Mennucci, 
 G. A. Petersson, H. Nakatsuji, M. Caricato, X. Li, H. P. Hratchian, 
 A. F. Izmaylov, J. Bloino, G. Zheng, J. L. Sonnenberg, M. Hada, 
 M. Ehara, K. Toyota, R. Fukuda, J. Hasegawa, M. Ishida, T. Nakajima, 
 Y. Honda, O. Kitao, H. Nakai, T. Vreven, J. A. Montgomery, Jr., 
 J. E. Peralta, F. Ogliaro, M. Bearpark, J. J. Heyd, E. Brothers, 
 K. N. Kudin, V. N. Staroverov, T. Keith, R. Kobayashi, J. Normand, 
 K. Raghavachari, A. Rendell, J. C. Burant, S. S. Iyengar, J. Tomasi, 
 M. Cossi, N. Rega, J. M. Millam, M. Klene, J. E. Knox, J. B. Cross, 
 V. Bakken, C. Adamo, J. Jaramillo, R. Gomperts, R. E. Stratmann, 
 O. Yazyev, A. J. Austin, R. Cammi, C. Pomelli, J. W. Ochterski, 
 R. L. Martin, K. Morokuma, V. G. Zakrzewski, G. A. Voth, 
 P. Salvador, J. J. Dannenberg, S. Dapprich, A. D. Daniels, 
 O. Farkas, J. B. Foresman, J. V. Ortiz, J. Cioslowski, 
 and D. J. Fox, Gaussian, Inc., Wallingford CT, 2013.
 
 ******************************************
 Gaussian 09:  ES64L-G09RevD.01 24-Apr-2013
                15-Apr-2016 
 ******************************************
 %NPROC=1
 Will use up to    1 processors via shared memory.
 %MEM=100MW
 ------------------------------------------
 #P HF 6-31G* OPT FREQ # GFINPUT IOP(6/7=3)
 ------------------------------------------
 1/18=20,19=15,38=1/1,3;
 2/9=110,12=2,17=6,18=5,40=1/2;
 3/5=1,6=6,7=1,11=9,16=1,24=10,25=1,30=1,71=1/1,2,3;
 4//1;
 5/5=2,38=5/2;
 6/7=3,8=2,9=2,10=2,28=1/1;
 7//1,2,3,16;
 1/18=20,19=15/3(2);
 2/9=110/2;
 99//99;
 2/9=110/2;
 3/5=1,6=6,7=1,11=9,16=1,25=1,30=1,71=1/1,2,3;
 4/5=5,16=3,69=1/1;
 5/5=2,38=5/2;
 7//1,2,3,16;
 1/18=20,19=15/3(-5);
 2/9=110/2;
 6/7=3,8=2,9=2,10=2,19=2,28=1/1;
 99/9=1/99;
 Leave Link    1 at Fri Apr 15 17:24:31 2016, MaxMem=   104857600 cpu:         0.0
 (Enter /home/projets/algogen/g09.D01/g09/l101.exe)
 ---------------
 equilibrium job
 ---------------
 Symbolic Z-matrix:
 Charge =  0 Multiplicity = 1
 7                     0.        1.        0. 
 7                     0.        2.        0.2 
 
 NAtoms=      2 NQM=        2 NQMF=       0 NMMI=      0 NMMIF=      0
                NMic=       0 NMicF=      0.
                    Isotopes and Nuclear Properties:
 (Nuclear quadrupole moments (NQMom) in fm**2, nuclear magnetic moments (NMagM)
  in nuclear magnetons)

  Atom         1           2
 IAtWgt=          14          14
 AtmWgt=  14.0030740  14.0030740
 NucSpn=           2           2
 AtZEff=   0.0000000   0.0000000
 NQMom=    2.0440000   2.0440000
 NMagM=    0.4037610   0.4037610
 AtZNuc=   7.0000000   7.0000000
 Leave Link  101 at Fri Apr 15 17:24:31 2016, MaxMem=   104857600 cpu:         0.1
 (Enter /home/projets/algogen/g09.D01/g09/l103.exe)

 GradGradGradGradGradGradGradGradGradGradGradGradGradGradGradGradGradGrad
 Berny optimization.
 Initialization pass.
                           ----------------------------
                           !    Initial Parameters    !
                           ! (Angstroms and Degrees)  !
 --------------------------                            --------------------------
 ! Name  Definition              Value          Derivative Info.                !
 --------------------------------------------------------------------------------
 ! R1    R(1,2)                  1.0198         estimate D2E/DX2                !
 --------------------------------------------------------------------------------
 Trust Radius=3.00D-01 FncErr=1.00D-07 GrdErr=1.00D-07
 Number of steps in this run=     20 maximum allowed number of steps=    100.
 GradGradGradGradGradGradGradGradGradGradGradGradGradGradGradGradGradGrad

 Leave Link  103 at Fri Apr 15 17:24:31 2016, MaxMem=   104857600 cpu:         0.0
 (Enter /home/projets/algogen/g09.D01/g09/l202.exe)
                          Input orientation:                          
 ---------------------------------------------------------------------
 Center     Atomic      Atomic             Coordinates (Angstroms)
 Number     Number       Type             X           Y           Z
 ---------------------------------------------------------------------
      1          7           0        0.000000    1.000000    0.000000
      2          7           0        0.000000    2.000000    0.200000
 ---------------------------------------------------------------------
 Stoichiometry    N2
 Framework group  D*H[C*(N.N)]
 Deg. of freedom     1
 Full point group                 D*H     NOp   8
 Largest Abelian subgroup         D2H     NOp   8
 Largest concise Abelian subgroup C2      NOp   2
                         Standard orientation:                         
 ---------------------------------------------------------------------
 Center     Atomic      Atomic             Coordinates (Angstroms)
 Number     Number       Type             X           Y           Z
 ---------------------------------------------------------------------
      1          7           0        0.000000    0.000000    0.509902
      2          7           0        0.000000    0.000000   -0.509902
 ---------------------------------------------------------------------
 Rotational constants (GHZ):      0.0000000     69.4049536     69.4049536
 Leave Link  202 at Fri Apr 15 17:24:31 2016, MaxMem=   104857600 cpu:         0.0
 (Enter /home/projets/algogen/g09.D01/g09/l301.exe)
 Standard basis: 6-31G(d) (6D, 7F)
 Ernie: Thresh=  0.10000D-02 Tol=  0.10000D-05 Strict=F.
 AO basis set in the form of general basis input (Overlap normalization):
      1 0
 S   6 1.00       0.000000000000
      0.4173511460D+04  0.1834772160D-02
      0.6274579110D+03  0.1399462700D-01
      0.1429020930D+03  0.6858655181D-01
      0.4023432930D+02  0.2322408730D+00
      0.1282021290D+02  0.4690699481D+00
      0.4390437010D+01  0.3604551991D+00
 SP   3 1.00       0.000000000000
      0.1162636186D+02 -0.1149611817D+00  0.6757974388D-01
      0.2716279807D+01 -0.1691174786D+00  0.3239072959D+00
      0.7722183966D+00  0.1145851947D+01  0.7408951398D+00
 SP   1 1.00       0.000000000000
      0.2120314975D+00  0.1000000000D+01  0.1000000000D+01
 D   1 1.00       0.000000000000
      0.8000000000D+00  0.1000000000D+01
 ****
      2 0
 S   6 1.00       0.000000000000
      0.4173511460D+04  0.1834772160D-02
      0.6274579110D+03  0.1399462700D-01
      0.1429020930D+03  0.6858655181D-01
      0.4023432930D+02  0.2322408730D+00
      0.1282021290D+02  0.4690699481D+00
      0.4390437010D+01  0.3604551991D+00
 SP   3 1.00       0.000000000000
      0.1162636186D+02 -0.1149611817D+00  0.6757974388D-01
      0.2716279807D+01 -0.1691174786D+00  0.3239072959D+00
      0.7722183966D+00  0.1145851947D+01  0.7408951398D+00
 SP   1 1.00       0.000000000000
      0.2120314975D+00  0.1000000000D+01  0.1000000000D+01
 D   1 1.00       0.000000000000
      0.8000000000D+00  0.1000000000D+01
 ****

 There are     8 symmetry adapted cartesian basis functions of AG  symmetry.
 There are     1 symmetry adapted cartesian basis functions of B1G symmetry.
 There are     3 symmetry adapted cartesian basis functions of B2G symmetry.
 There are     3 symmetry adapted cartesian basis functions of B3G symmetry.
 There are     1 symmetry adapted cartesian basis functions of AU  symmetry.
 There are     8 symmetry adapted cartesian basis functions of B1U symmetry.
 There are     3 symmetry adapted cartesian basis functions of B2U symmetry.
 There are     3 symmetry adapted cartesian basis functions of B3U symmetry.
 There are     8 symmetry adapted basis functions of AG  symmetry.
 There are     1 symmetry adapted basis functions of B1G symmetry.
 There are     3 symmetry adapted basis functions of B2G symmetry.
 There are     3 symmetry adapted basis functions of B3G symmetry.
 There are     1 symmetry adapted basis functions of AU  symmetry.
 There are     8 symmetry adapted basis functions of B1U symmetry.
 There are     3 symmetry adapted basis functions of B2U symmetry.
 There are     3 symmetry adapted basis functions of B3U symmetry.
    30 basis functions,    56 primitive gaussians,    30 cartesian basis functions
     7 alpha electrons        7 beta electrons
       nuclear repulsion energy        25.4261462932 Hartrees.
 IExCor=    0 DFT=F Ex=HF Corr=None ExCW=0 ScaHFX=  1.000000
 ScaDFX=  1.000000  1.000000  1.000000  1.000000 ScalE2=  1.000000  1.000000
 IRadAn=      0 IRanWt=     -1 IRanGd=            0 ICorTp=0 IEmpDi=  4
 NAtoms=    2 NActive=    2 NUniq=    1 SFac= 4.00D+00 NAtFMM=   60 NAOKFM=F Big=F
 Integral buffers will be    131072 words long.
 Raffenetti 1 integral format.
 Two-electron integral symmetry is turned on.
 Leave Link  301 at Fri Apr 15 17:24:31 2016, MaxMem=   104857600 cpu:         0.0
 (Enter /home/projets/algogen/g09.D01/g09/l302.exe)
 NPDir=0 NMtPBC=     1 NCelOv=     1 NCel=       1 NClECP=     1 NCelD=      1
         NCelK=      1 NCelE2=     1 NClLst=     1 CellRange=     0.0.
 One-electron integrals computed using PRISM.
 One-electron integral symmetry used in STVInt
 NBasis=    30 RedAO= T EigKep=  4.30D-03  NBF=     8     1     3     3     1     8     3     3
 NBsUse=    30 1.00D-06 EigRej= -1.00D+00 NBFU=     8     1     3     3     1     8     3     3
 Leave Link  302 at Fri Apr 15 17:24:31 2016, MaxMem=   104857600 cpu:         0.1
 (Enter /home/projets/algogen/g09.D01/g09/l303.exe)
 DipDrv:  MaxL=1.
 Leave Link  303 at Fri Apr 15 17:24:31 2016, MaxMem=   104857600 cpu:         0.0
 (Enter /home/projets/algogen/g09.D01/g09/l401.exe)
 ExpMin= 2.12D-01 ExpMax= 4.17D+03 ExpMxC= 6.27D+02 IAcc=1 IRadAn=         1 AccDes= 0.00D+00
 Harris functional with IExCor=  205 and IRadAn=       1 diagonalized for initial guess.
 HarFok:  IExCor=  205 AccDes= 0.00D+00 IRadAn=         1 IDoV= 1 UseB2=F ITyADJ=14
 ICtDFT=  3500011 ScaDFX=  1.000000  1.000000  1.000000  1.000000
 FoFCou: FMM=F IPFlag=           0 FMFlag=      100000 FMFlg1=           0
         NFxFlg=           0 DoJE=T BraDBF=F KetDBF=T FulRan=T
         wScrn=  0.000000 ICntrl=     500 IOpCl=  0 I1Cent=   200000004 NGrid=           0
         NMat0=    1 NMatS0=      1 NMatT0=    0 NMatD0=    1 NMtDS0=    0 NMtDT0=    0
 Petite list used in FoFCou.
 Harris En= -108.887237698951    
 JPrj=0 DoOrth=F DoCkMO=F.
 Initial guess orbital symmetries:
       Occupied  (SGG) (SGU) (SGG) (SGU) (PIU) (PIU) (SGG)
       Virtual   (PIG) (PIG) (SGU) (SGG) (PIU) (PIU) (SGG) (PIG)
                 (PIG) (SGU) (SGU) (DLTG) (DLTG) (PIU) (PIU) (DLTU)
                 (DLTU) (SGG) (PIG) (PIG) (SGU) (SGG) (SGU)
 The electronic state of the initial guess is 1-SGG.
 Leave Link  401 at Fri Apr 15 17:24:31 2016, MaxMem=   104857600 cpu:         0.1
 (Enter /home/projets/algogen/g09.D01/g09/l502.exe)
 Closed shell SCF:
 Using DIIS extrapolation, IDIIS=  1040.
 Integral symmetry usage will be decided dynamically.
 Keep R1 ints in memory in symmetry-blocked form, NReq=959811.
 IVT=       21766 IEndB=       21766 NGot=   104857600 MDV=   104817788
 LenX=   104817788 LenY=   104816447
 Requested convergence on RMS density matrix=1.00D-08 within 128 cycles.
 Requested convergence on MAX density matrix=1.00D-06.
 Requested convergence on             energy=1.00D-06.
 No special actions if energy rises.
 FoFCou: FMM=F IPFlag=           0 FMFlag=           0 FMFlg1=           0
         NFxFlg=           0 DoJE=F BraDBF=F KetDBF=F FulRan=T
         wScrn=  0.000000 ICntrl=     600 IOpCl=  0 I1Cent=           0 NGrid=           0
         NMat0=    1 NMatS0=    465 NMatT0=    0 NMatD0=    1 NMtDS0=    0 NMtDT0=    0
 Petite list used in FoFCou.

 Cycle   1  Pass 1  IDiag  1:
 E= -108.901415669993    
 DIIS: error= 7.19D-02 at cycle   1 NSaved=   1.
 NSaved= 1 IEnMin= 1 EnMin= -108.901415669993     IErMin= 1 ErrMin= 7.19D-02
 ErrMax= 7.19D-02  0.00D+00 EMaxC= 1.00D-01 BMatC= 8.42D-02 BMatP= 8.42D-02
 IDIUse=3 WtCom= 2.81D-01 WtEn= 7.19D-01
 Coeff-Com:  0.100D+01
 Coeff-En:   0.100D+01
 Coeff:      0.100D+01
 Gap=     0.867 Goal=   None    Shift=    0.000
 GapD=    0.867 DampG=2.000 DampE=0.500 DampFc=1.0000 IDamp=-1.
 RMSDP=5.21D-03 MaxDP=3.13D-02              OVMax= 4.95D-02

 Cycle   2  Pass 1  IDiag  1:
 E= -108.928852087856     Delta-E=       -0.027436417863 Rises=F Damp=F
 DIIS: error= 7.09D-03 at cycle   2 NSaved=   2.
 NSaved= 2 IEnMin= 2 EnMin= -108.928852087856     IErMin= 2 ErrMin= 7.09D-03
 ErrMax= 7.09D-03  0.00D+00 EMaxC= 1.00D-01 BMatC= 1.45D-03 BMatP= 8.42D-02
 IDIUse=3 WtCom= 9.29D-01 WtEn= 7.09D-02
 Coeff-Com: -0.303D-01 0.103D+01
 Coeff-En:   0.000D+00 0.100D+01
 Coeff:     -0.281D-01 0.103D+01
 Gap=     0.850 Goal=   None    Shift=    0.000
 RMSDP=1.18D-03 MaxDP=1.23D-02 DE=-2.74D-02 OVMax= 9.71D-03

 Cycle   3  Pass 1  IDiag  1:
 E= -108.929768923528     Delta-E=       -0.000916835672 Rises=F Damp=F
 DIIS: error= 1.99D-03 at cycle   3 NSaved=   3.
 NSaved= 3 IEnMin= 3 EnMin= -108.929768923528     IErMin= 3 ErrMin= 1.99D-03
 ErrMax= 1.99D-03  0.00D+00 EMaxC= 1.00D-01 BMatC= 5.58D-05 BMatP= 1.45D-03
 IDIUse=3 WtCom= 9.80D-01 WtEn= 1.99D-02
 Coeff-Com: -0.126D-01 0.123D+00 0.890D+00
 Coeff-En:   0.000D+00 0.000D+00 0.100D+01
 Coeff:     -0.123D-01 0.120D+00 0.892D+00
 Gap=     0.849 Goal=   None    Shift=    0.000
 RMSDP=2.00D-04 MaxDP=1.45D-03 DE=-9.17D-04 OVMax= 2.59D-03

 Cycle   4  Pass 1  IDiag  1:
 E= -108.929830827589     Delta-E=       -0.000061904061 Rises=F Damp=F
 DIIS: error= 3.71D-04 at cycle   4 NSaved=   4.
 NSaved= 4 IEnMin= 4 EnMin= -108.929830827589     IErMin= 4 ErrMin= 3.71D-04
 ErrMax= 3.71D-04  0.00D+00 EMaxC= 1.00D-01 BMatC= 2.26D-06 BMatP= 5.58D-05
 IDIUse=3 WtCom= 9.96D-01 WtEn= 3.71D-03
 Coeff-Com:  0.388D-02-0.604D-01-0.216D+00 0.127D+01
 Coeff-En:   0.000D+00 0.000D+00 0.000D+00 0.100D+01
 Coeff:      0.387D-02-0.602D-01-0.215D+00 0.127D+01
 Gap=     0.849 Goal=   None    Shift=    0.000
 RMSDP=7.70D-05 MaxDP=5.94D-04 DE=-6.19D-05 OVMax= 6.81D-04

 Cycle   5  Pass 1  IDiag  1:
 E= -108.929833941586     Delta-E=       -0.000003113997 Rises=F Damp=F
 DIIS: error= 2.71D-05 at cycle   5 NSaved=   5.
 NSaved= 5 IEnMin= 5 EnMin= -108.929833941586     IErMin= 5 ErrMin= 2.71D-05
 ErrMax= 2.71D-05  0.00D+00 EMaxC= 1.00D-01 BMatC= 7.75D-09 BMatP= 2.26D-06
 IDIUse=1 WtCom= 1.00D+00 WtEn= 0.00D+00
 Coeff-Com: -0.259D-03 0.436D-02 0.141D-01-0.112D+00 0.109D+01
 Coeff:     -0.259D-03 0.436D-02 0.141D-01-0.112D+00 0.109D+01
 Gap=     0.849 Goal=   None    Shift=    0.000
 RMSDP=7.83D-06 MaxDP=9.03D-05 DE=-3.11D-06 OVMax= 4.42D-05

 Cycle   6  Pass 1  IDiag  1:
 E= -108.929833953384     Delta-E=       -0.000000011798 Rises=F Damp=F
 DIIS: error= 4.20D-06 at cycle   6 NSaved=   6.
 NSaved= 6 IEnMin= 6 EnMin= -108.929833953384     IErMin= 6 ErrMin= 4.20D-06
 ErrMax= 4.20D-06  0.00D+00 EMaxC= 1.00D-01 BMatC= 2.65D-10 BMatP= 7.75D-09
 IDIUse=1 WtCom= 1.00D+00 WtEn= 0.00D+00
 Coeff-Com: -0.693D-05 0.154D-03 0.484D-03 0.455D-03-0.221D+00 0.122D+01
 Coeff:     -0.693D-05 0.154D-03 0.484D-03 0.455D-03-0.221D+00 0.122D+01
 Gap=     0.849 Goal=   None    Shift=    0.000
 RMSDP=1.92D-06 MaxDP=2.21D-05 DE=-1.18D-08 OVMax= 1.02D-05

 Cycle   7  Pass 1  IDiag  1:
 E= -108.929833953825     Delta-E=       -0.000000000442 Rises=F Damp=F
 DIIS: error= 4.79D-07 at cycle   7 NSaved=   7.
 NSaved= 7 IEnMin= 7 EnMin= -108.929833953825     IErMin= 7 ErrMin= 4.79D-07
 ErrMax= 4.79D-07  0.00D+00 EMaxC= 1.00D-01 BMatC= 2.48D-12 BMatP= 2.65D-10
 IDIUse=1 WtCom= 1.00D+00 WtEn= 0.00D+00
 Coeff-Com:  0.656D-05-0.120D-03-0.404D-03 0.195D-02 0.351D-01-0.269D+00
 Coeff-Com:  0.123D+01
 Coeff:      0.656D-05-0.120D-03-0.404D-03 0.195D-02 0.351D-01-0.269D+00
 Coeff:      0.123D+01
 Gap=     0.849 Goal=   None    Shift=    0.000
 RMSDP=1.49D-07 MaxDP=1.61D-06 DE=-4.42D-10 OVMax= 1.01D-06

 Cycle   8  Pass 1  IDiag  1:
 E= -108.929833953829     Delta-E=       -0.000000000004 Rises=F Damp=F
 DIIS: error= 3.22D-08 at cycle   8 NSaved=   8.
 NSaved= 8 IEnMin= 8 EnMin= -108.929833953829     IErMin= 8 ErrMin= 3.22D-08
 ErrMax= 3.22D-08  0.00D+00 EMaxC= 1.00D-01 BMatC= 1.82D-14 BMatP= 2.48D-12
 IDIUse=1 WtCom= 1.00D+00 WtEn= 0.00D+00
 Coeff-Com: -0.871D-06 0.161D-04 0.616D-04-0.309D-03-0.327D-02 0.296D-01
 Coeff-Com: -0.195D+00 0.117D+01
 Coeff:     -0.871D-06 0.161D-04 0.616D-04-0.309D-03-0.327D-02 0.296D-01
 Coeff:     -0.195D+00 0.117D+01
 Gap=     0.849 Goal=   None    Shift=    0.000
 RMSDP=9.35D-09 MaxDP=1.02D-07 DE=-3.98D-12 OVMax= 6.55D-08

 SCF Done:  E(RHF) =  -108.929833954     A.U. after    8 cycles
            NFock=  8  Conv=0.93D-08     -V/T= 1.9990
 KE= 1.090407279797D+02 PE=-3.066472895895D+02 EE= 6.325058136279D+01
 Leave Link  502 at Fri Apr 15 17:24:31 2016, MaxMem=   104857600 cpu:         0.1
 (Enter /home/projets/algogen/g09.D01/g09/l601.exe)
 Copying SCF densities to generalized density rwf, IOpCl= 0 IROHF=0.

 **********************************************************************

            Population analysis using the SCF density.

 **********************************************************************

 Orbital symmetries:
       Occupied  (SGG) (SGU) (SGG) (SGU) (PIU) (PIU) (SGG)
       Virtual   (PIG) (PIG) (SGU) (SGG) (PIU) (PIU) (SGG) (PIG)
                 (PIG) (SGU) (SGU) (DLTG) (DLTG) (PIU) (PIU) (DLTU)
                 (DLTU) (SGG) (PIG) (PIG) (SGU) (SGG) (SGU)
 The electronic state is 1-SGG.
 Alpha  occ. eigenvalues --  -15.67273 -15.66711  -1.53212  -0.75014  -0.64741
 Alpha  occ. eigenvalues --   -0.64741  -0.63577
 Alpha virt. eigenvalues --    0.21357   0.21357   0.60621   0.75371   0.81279
 Alpha virt. eigenvalues --    0.81279   0.84065   1.03514   1.03514   1.16241
 Alpha virt. eigenvalues --    1.61112   1.69518   1.69518   1.94002   1.94002
 Alpha virt. eigenvalues --    2.31488   2.31488   2.78143   3.02953   3.02953
 Alpha virt. eigenvalues --    3.47646   3.68826   4.07631
     Molecular Orbital Coefficients:
                           1         2         3         4         5
                       (SGG)--O  (SGU)--O  (SGG)--O  (SGU)--O  (PIU)--O
     Eigenvalues --   -15.67273 -15.66711  -1.53212  -0.75014  -0.64741
   1 1   N  1S          0.70306   0.70408  -0.16740  -0.14390   0.00000
   2        2S          0.01723   0.01812   0.33400   0.31965   0.00000
   3        2PX         0.00000   0.00000   0.00000   0.00000   0.44008
   4        2PY         0.00000   0.00000   0.00000   0.00000   0.00000
   5        2PZ        -0.00171  -0.00289  -0.23803   0.23500   0.00000
   6        3S          0.00046  -0.00075   0.16818   0.49641   0.00000
   7        3PX         0.00000   0.00000   0.00000   0.00000   0.23045
   8        3PY         0.00000   0.00000   0.00000   0.00000   0.00000
   9        3PZ         0.00042   0.00025  -0.02999   0.08793   0.00000
  10        4XX        -0.00295  -0.00278  -0.01339   0.00223   0.00000
  11        4YY        -0.00295  -0.00278  -0.01339   0.00223   0.00000
  12        4ZZ        -0.00193  -0.00060   0.03241  -0.01601   0.00000
  13        4XY         0.00000   0.00000   0.00000   0.00000   0.00000
  14        4XZ         0.00000   0.00000   0.00000   0.00000  -0.04957
  15        4YZ         0.00000   0.00000   0.00000   0.00000   0.00000
  16 2   N  1S          0.70306  -0.70408  -0.16740   0.14390   0.00000
  17        2S          0.01723  -0.01812   0.33400  -0.31965   0.00000
  18        2PX         0.00000   0.00000   0.00000   0.00000   0.44008
  19        2PY         0.00000   0.00000   0.00000   0.00000   0.00000
  20        2PZ         0.00171  -0.00289   0.23803   0.23500   0.00000
  21        3S          0.00046   0.00075   0.16818  -0.49641   0.00000
  22        3PX         0.00000   0.00000   0.00000   0.00000   0.23045
  23        3PY         0.00000   0.00000   0.00000   0.00000   0.00000
  24        3PZ        -0.00042   0.00025   0.02999   0.08793   0.00000
  25        4XX        -0.00295   0.00278  -0.01339  -0.00223   0.00000
  26        4YY        -0.00295   0.00278  -0.01339  -0.00223   0.00000
  27        4ZZ        -0.00193   0.00060   0.03241   0.01601   0.00000
  28        4XY         0.00000   0.00000   0.00000   0.00000   0.00000
  29        4XZ         0.00000   0.00000   0.00000   0.00000   0.04957
  30        4YZ         0.00000   0.00000   0.00000   0.00000   0.00000
                           6         7         8         9        10
                       (PIU)--O  (SGG)--O  (PIG)--V  (PIG)--V  (SGU)--V
     Eigenvalues --    -0.64741  -0.63577   0.21357   0.21357   0.60621
   1 1   N  1S          0.00000  -0.05209   0.00000   0.00000  -0.08515
   2        2S          0.00000   0.10720   0.00000   0.00000   0.20458
   3        2PX         0.00000   0.00000   0.00000   0.42190   0.00000
   4        2PY         0.44008   0.00000   0.42190   0.00000   0.00000
   5        2PZ         0.00000   0.45689   0.00000   0.00000  -0.00151
   6        3S          0.00000   0.34350   0.00000   0.00000   5.34440
   7        3PX         0.00000   0.00000   0.00000   0.75897   0.00000
   8        3PY         0.23045   0.00000   0.75897   0.00000   0.00000
   9        3PZ         0.00000   0.19361   0.00000   0.00000  -3.16173
  10        4XX         0.00000   0.00853   0.00000   0.00000  -0.00921
  11        4YY         0.00000   0.00853   0.00000   0.00000  -0.00921
  12        4ZZ         0.00000  -0.03013   0.00000   0.00000   0.09137
  13        4XY         0.00000   0.00000   0.00000   0.00000   0.00000
  14        4XZ         0.00000   0.00000   0.00000   0.01252   0.00000
  15        4YZ        -0.04957   0.00000   0.01252   0.00000   0.00000
  16 2   N  1S          0.00000  -0.05209   0.00000   0.00000   0.08515
  17        2S          0.00000   0.10720   0.00000   0.00000  -0.20458
  18        2PX         0.00000   0.00000   0.00000  -0.42190   0.00000
  19        2PY         0.44008   0.00000  -0.42190   0.00000   0.00000
  20        2PZ         0.00000  -0.45689   0.00000   0.00000  -0.00151
  21        3S          0.00000   0.34350   0.00000   0.00000  -5.34440
  22        3PX         0.00000   0.00000   0.00000  -0.75897   0.00000
  23        3PY         0.23045   0.00000  -0.75897   0.00000   0.00000
  24        3PZ         0.00000  -0.19361   0.00000   0.00000  -3.16173
  25        4XX         0.00000   0.00853   0.00000   0.00000   0.00921
  26        4YY         0.00000   0.00853   0.00000   0.00000   0.00921
  27        4ZZ         0.00000  -0.03013   0.00000   0.00000  -0.09137
  28        4XY         0.00000   0.00000   0.00000   0.00000   0.00000
  29        4XZ         0.00000   0.00000   0.00000   0.01252   0.00000
  30        4YZ         0.04957   0.00000   0.01252   0.00000   0.00000
                          11        12        13        14        15
                       (SGG)--V  (PIU)--V  (PIU)--V  (SGG)--V  (PIG)--V
     Eigenvalues --     0.75371   0.81279   0.81279   0.84065   1.03514
   1 1   N  1S          0.02942   0.00000   0.00000   0.00396   0.00000
   2        2S          0.44974   0.00000   0.00000  -0.69778   0.00000
   3        2PX         0.00000  -0.60753   0.00000   0.00000   0.00000
   4        2PY         0.00000   0.00000  -0.60753   0.00000  -0.73231
   5        2PZ        -0.33569   0.00000   0.00000  -0.38382   0.00000
   6        3S         -0.28159   0.00000   0.00000   1.05602   0.00000
   7        3PX         0.00000   0.61730   0.00000   0.00000   0.00000
   8        3PY         0.00000   0.00000   0.61730   0.00000   1.22401
   9        3PZ         0.97077   0.00000   0.00000   0.36609   0.00000
  10        4XX         0.05889   0.00000   0.00000  -0.16923   0.00000
  11        4YY         0.05889   0.00000   0.00000  -0.16923   0.00000
  12        4ZZ         0.12815   0.00000   0.00000  -0.20855   0.00000
  13        4XY         0.00000   0.00000   0.00000   0.00000   0.00000
  14        4XZ         0.00000   0.10052   0.00000   0.00000   0.00000
  15        4YZ         0.00000   0.00000   0.10052   0.00000  -0.10634
  16 2   N  1S          0.02942   0.00000   0.00000   0.00396   0.00000
  17        2S          0.44974   0.00000   0.00000  -0.69778   0.00000
  18        2PX         0.00000  -0.60753   0.00000   0.00000   0.00000
  19        2PY         0.00000   0.00000  -0.60753   0.00000   0.73231
  20        2PZ         0.33569   0.00000   0.00000   0.38382   0.00000
  21        3S         -0.28159   0.00000   0.00000   1.05602   0.00000
  22        3PX         0.00000   0.61730   0.00000   0.00000   0.00000
  23        3PY         0.00000   0.00000   0.61730   0.00000  -1.22401
  24        3PZ        -0.97077   0.00000   0.00000  -0.36609   0.00000
  25        4XX         0.05889   0.00000   0.00000  -0.16923   0.00000
  26        4YY         0.05889   0.00000   0.00000  -0.16923   0.00000
  27        4ZZ         0.12815   0.00000   0.00000  -0.20855   0.00000
  28        4XY         0.00000   0.00000   0.00000   0.00000   0.00000
  29        4XZ         0.00000  -0.10052   0.00000   0.00000   0.00000
  30        4YZ         0.00000   0.00000  -0.10052   0.00000  -0.10634
                          16        17        18        19        20
                       (PIG)--V  (SGU)--V  (SGU)--V  (DLTG)--  (DLTG)--
     Eigenvalues --     1.03514   1.16241   1.61112   1.69518   1.69518
   1 1   N  1S          0.00000  -0.09244   0.00985   0.00000   0.00000
   2        2S          0.00000  -0.61009  -1.12679   0.00000   0.00000
   3        2PX        -0.73231   0.00000   0.00000   0.00000   0.00000
   4        2PY         0.00000   0.00000   0.00000   0.00000   0.00000
   5        2PZ         0.00000  -0.57374   0.38128   0.00000   0.00000
   6        3S          0.00000   4.64586   7.38431   0.00000   0.00000
   7        3PX         1.22401   0.00000   0.00000   0.00000   0.00000
   8        3PY         0.00000   0.00000   0.00000   0.00000   0.00000
   9        3PZ         0.00000  -1.53507  -3.22823   0.00000   0.00000
  10        4XX         0.00000  -0.07091  -0.28955   0.00000   0.55297
  11        4YY         0.00000  -0.07091  -0.28955   0.00000  -0.55297
  12        4ZZ         0.00000  -0.35525   0.23320   0.00000   0.00000
  13        4XY         0.00000   0.00000   0.00000   0.63852   0.00000
  14        4XZ        -0.10634   0.00000   0.00000   0.00000   0.00000
  15        4YZ         0.00000   0.00000   0.00000   0.00000   0.00000
  16 2   N  1S          0.00000   0.09244  -0.00985   0.00000   0.00000
  17        2S          0.00000   0.61009   1.12679   0.00000   0.00000
  18        2PX         0.73231   0.00000   0.00000   0.00000   0.00000
  19        2PY         0.00000   0.00000   0.00000   0.00000   0.00000
  20        2PZ         0.00000  -0.57374   0.38128   0.00000   0.00000
  21        3S          0.00000  -4.64586  -7.38431   0.00000   0.00000
  22        3PX        -1.22401   0.00000   0.00000   0.00000   0.00000
  23        3PY         0.00000   0.00000   0.00000   0.00000   0.00000
  24        3PZ         0.00000  -1.53507  -3.22823   0.00000   0.00000
  25        4XX         0.00000   0.07091   0.28955   0.00000   0.55297
  26        4YY         0.00000   0.07091   0.28955   0.00000  -0.55297
  27        4ZZ         0.00000   0.35525  -0.23320   0.00000   0.00000
  28        4XY         0.00000   0.00000   0.00000   0.63852   0.00000
  29        4XZ        -0.10634   0.00000   0.00000   0.00000   0.00000
  30        4YZ         0.00000   0.00000   0.00000   0.00000   0.00000
                          21        22        23        24        25
                       (PIU)--V  (PIU)--V  (DLTU)--  (DLTU)--  (SGG)--V
     Eigenvalues --     1.94002   1.94002   2.31488   2.31488   2.78143
   1 1   N  1S          0.00000   0.00000   0.00000   0.00000   0.16754
   2        2S          0.00000   0.00000   0.00000   0.00000   0.33279
   3        2PX         0.00000   0.32719   0.00000   0.00000   0.00000
   4        2PY         0.32719   0.00000   0.00000   0.00000   0.00000
   5        2PZ         0.00000   0.00000   0.00000   0.00000  -0.29169
   6        3S          0.00000   0.00000   0.00000   0.00000  -0.57723
   7        3PX         0.00000  -0.08826   0.00000   0.00000   0.00000
   8        3PY        -0.08826   0.00000   0.00000   0.00000   0.00000
   9        3PZ         0.00000   0.00000   0.00000   0.00000   0.63387
  10        4XX         0.00000   0.00000   0.00000   0.69623   0.72628
  11        4YY         0.00000   0.00000   0.00000  -0.69623   0.72628
  12        4ZZ         0.00000   0.00000   0.00000   0.00000  -0.56025
  13        4XY         0.00000   0.00000   0.80393   0.00000   0.00000
  14        4XZ         0.00000   0.60019   0.00000   0.00000   0.00000
  15        4YZ         0.60019   0.00000   0.00000   0.00000   0.00000
  16 2   N  1S          0.00000   0.00000   0.00000   0.00000   0.16754
  17        2S          0.00000   0.00000   0.00000   0.00000   0.33279
  18        2PX         0.00000   0.32719   0.00000   0.00000   0.00000
  19        2PY         0.32719   0.00000   0.00000   0.00000   0.00000
  20        2PZ         0.00000   0.00000   0.00000   0.00000   0.29169
  21        3S          0.00000   0.00000   0.00000   0.00000  -0.57723
  22        3PX         0.00000  -0.08826   0.00000   0.00000   0.00000
  23        3PY        -0.08826   0.00000   0.00000   0.00000   0.00000
  24        3PZ         0.00000   0.00000   0.00000   0.00000  -0.63387
  25        4XX         0.00000   0.00000   0.00000  -0.69623   0.72628
  26        4YY         0.00000   0.00000   0.00000   0.69623   0.72628
  27        4ZZ         0.00000   0.00000   0.00000   0.00000  -0.56025
  28        4XY         0.00000   0.00000  -0.80393   0.00000   0.00000
  29        4XZ         0.00000  -0.60019   0.00000   0.00000   0.00000
  30        4YZ        -0.60019   0.00000   0.00000   0.00000   0.00000
                          26        27        28        29        30
                       (PIG)--V  (PIG)--V  (SGU)--V  (SGG)--V  (SGU)--V
     Eigenvalues --     3.02953   3.02953   3.47646   3.68826   4.07631
   1 1   N  1S          0.00000   0.00000   0.01935  -0.20796  -0.37612
   2        2S          0.00000   0.00000   0.94451   1.41329   0.37979
   3        2PX        -0.39746   0.00000   0.00000   0.00000   0.00000
   4        2PY         0.00000  -0.39746   0.00000   0.00000   0.00000
   5        2PZ         0.00000   0.00000  -1.34973  -0.13344   0.55385
   6        3S          0.00000   0.00000   3.39383   0.74405   4.52807
   7        3PX        -0.51951   0.00000   0.00000   0.00000   0.00000
   8        3PY         0.00000  -0.51951   0.00000   0.00000   0.00000
   9        3PZ         0.00000   0.00000  -1.63448   0.11591  -1.38825
  10        4XX         0.00000   0.00000  -0.56604  -0.72175  -1.06299
  11        4YY         0.00000   0.00000  -0.56604  -0.72175  -1.06299
  12        4ZZ         0.00000   0.00000   1.22888  -1.23450  -1.25480
  13        4XY         0.00000   0.00000   0.00000   0.00000   0.00000
  14        4XZ         1.20582   0.00000   0.00000   0.00000   0.00000
  15        4YZ         0.00000   1.20582   0.00000   0.00000   0.00000
  16 2   N  1S          0.00000   0.00000  -0.01935  -0.20796   0.37612
  17        2S          0.00000   0.00000  -0.94451   1.41329  -0.37979
  18        2PX         0.39746   0.00000   0.00000   0.00000   0.00000
  19        2PY         0.00000   0.39746   0.00000   0.00000   0.00000
  20        2PZ         0.00000   0.00000  -1.34973   0.13344   0.55385
  21        3S          0.00000   0.00000  -3.39383   0.74405  -4.52807
  22        3PX         0.51951   0.00000   0.00000   0.00000   0.00000
  23        3PY         0.00000   0.51951   0.00000   0.00000   0.00000
  24        3PZ         0.00000   0.00000  -1.63448  -0.11591  -1.38825
  25        4XX         0.00000   0.00000   0.56604  -0.72175   1.06299
  26        4YY         0.00000   0.00000   0.56604  -0.72175   1.06299
  27        4ZZ         0.00000   0.00000  -1.22888  -1.23450   1.25480
  28        4XY         0.00000   0.00000   0.00000   0.00000   0.00000
  29        4XZ         1.20582   0.00000   0.00000   0.00000   0.00000
  30        4YZ         0.00000   1.20582   0.00000   0.00000   0.00000
          Condensed to atoms (all electrons):
               1          2
     1  N    6.308247   0.691753
     2  N    0.691753   6.308247
 Mulliken charges:
               1
     1  N    0.000000
     2  N    0.000000
 Sum of Mulliken charges =   0.00000
 Mulliken charges with hydrogens summed into heavy atoms:
               1
     1  N    0.000000
     2  N    0.000000
 Electronic spatial extent (au):  <R**2>=             36.4205
 Charge=              0.0000 electrons
 Dipole moment (field-independent basis, Debye):
    X=              0.0000    Y=              0.0000    Z=              0.0000  Tot=              0.0000
 Quadrupole moment (field-independent basis, Debye-Ang):
   XX=             -9.9581   YY=             -9.9581   ZZ=            -11.5870
   XY=              0.0000   XZ=              0.0000   YZ=              0.0000
 Traceless Quadrupole moment (field-independent basis, Debye-Ang):
   XX=              0.5430   YY=              0.5430   ZZ=             -1.0859
   XY=              0.0000   XZ=              0.0000   YZ=              0.0000
 Octapole moment (field-independent basis, Debye-Ang**2):
  XXX=              0.0000  YYY=              0.0000  ZZZ=              0.0000  XYY=              0.0000
  XXY=              0.0000  XXZ=              0.0000  XZZ=              0.0000  YZZ=              0.0000
  YYZ=              0.0000  XYZ=              0.0000
 Hexadecapole moment (field-independent basis, Debye-Ang**3):
 XXXX=             -7.8931 YYYY=             -7.8931 ZZZZ=            -27.7819 XXXY=              0.0000
 XXXZ=              0.0000 YYYX=              0.0000 YYYZ=              0.0000 ZZZX=              0.0000
 ZZZY=              0.0000 XXYY=             -2.6310 XXZZ=             -5.5653 YYZZ=             -5.5653
 XXYZ=              0.0000 YYXZ=              0.0000 ZZXY=              0.0000
 N-N= 2.542614629321D+01 E-N=-3.066472897296D+02  KE= 1.090407279797D+02
 Symmetry AG   KE= 5.361005741918D+01
 Symmetry B1G  KE= 1.543614636692D-34
 Symmetry B2G  KE= 1.691110594029D-32
 Symmetry B3G  KE= 2.174974661736D-31
 Symmetry AU   KE= 3.821264912904D-34
 Symmetry B1U  KE= 4.873428675631D+01
 Symmetry B2U  KE= 3.348191902085D+00
 Symmetry B3U  KE= 3.348191902085D+00
 Orbital energies and kinetic energies (alpha):
                                 1                 2
   1 (SGG)--O                -15.672728         22.047456
   2 (SGU)--O                -15.667107         22.111464
   3 (SGG)--O                 -1.532122          2.753267
   4 (SGU)--O                 -0.750144          2.255680
   5 (PIU)--O                 -0.647412          1.674096
   6 (PIU)--O                 -0.647412          1.674096
   7 (SGG)--O                 -0.635774          2.004306
   8 (PIG)--V                  0.213569          1.700916
   9 (PIG)--V                  0.213569          1.700916
  10 (SGU)--V                  0.606206          1.304090
  11 (SGG)--V                  0.753711          1.415432
  12 (PIU)--V                  0.812787          2.265078
  13 (PIU)--V                  0.812787          2.265078
  14 (SGG)--V                  0.840651          1.993239
  15 (PIG)--V                  1.035140          3.058448
  16 (PIG)--V                  1.035140          3.058448
  17 (SGU)--V                  1.162410          2.843832
  18 (SGU)--V                  1.611116          3.642214
  19 (DLTG)--V                 1.695183          2.580626
  20 (DLTG)--V                 1.695183          2.580626
  21 (PIU)--V                  1.940023          3.172402
  22 (PIU)--V                  1.940023          3.172402
  23 (DLTU)--V                 2.314879          3.147759
  24 (DLTU)--V                 2.314879          3.147759
  25 (SGG)--V                  2.781435          4.373456
  26 (PIG)--V                  3.029527          4.164150
  27 (PIG)--V                  3.029527          4.164150
  28 (SGU)--V                  3.476461          7.048957
  29 (SGG)--V                  3.688260          7.998602
  30 (SGU)--V                  4.076314         10.024421
 Total kinetic energy from orbitals= 1.090407279797D+02
 No NMR shielding tensors so no spin-rotation constants.
 Leave Link  601 at Fri Apr 15 17:24:31 2016, MaxMem=   104857600 cpu:         0.1
 (Enter /home/projets/algogen/g09.D01/g09/l701.exe)
 Compute integral first derivatives.
 ... and contract with generalized density number  0.
 Leave Link  701 at Fri Apr 15 17:24:31 2016, MaxMem=   104857600 cpu:         0.1
 (Enter /home/projets/algogen/g09.D01/g09/l702.exe)
 L702 exits ... SP integral derivatives will be done elsewhere.
 Leave Link  702 at Fri Apr 15 17:24:31 2016, MaxMem=   104857600 cpu:         0.0
 (Enter /home/projets/algogen/g09.D01/g09/l703.exe)
 Compute integral first derivatives, UseDBF=F ICtDFT=           0.
 Integral derivatives from FoFJK, PRISM(SPDF).
 Calling FoFJK, ICntrl=      2127 FMM=F ISym2X=1 I1Cent= 0 IOpClX= 0 NMat=1 NMatS=1 NMatT=0.
 FoFJK:  IHMeth= 1 ICntrl=    2127 DoSepK=F KAlg= 0 I1Cent=   0 FoldK=F
 IRaf=         0 NMat=   1 IRICut=       1 DoRegI=T DoRafI=F ISym2E= 1.
 FoFCou: FMM=F IPFlag=           0 FMFlag=      100000 FMFlg1=         800
         NFxFlg=           0 DoJE=F BraDBF=F KetDBF=F FulRan=T
         wScrn=  0.000000 ICntrl=    2127 IOpCl=  0 I1Cent=           0 NGrid=           0
         NMat0=    1 NMatS0=      1 NMatT0=    0 NMatD0=    1 NMtDS0=    0 NMtDT0=    0
 Petite list used in FoFCou.
 Leave Link  703 at Fri Apr 15 17:24:32 2016, MaxMem=   104857600 cpu:         0.1
 (Enter /home/projets/algogen/g09.D01/g09/l716.exe)
 Dipole        = 0.00000000D+00 4.93038066D-32 0.00000000D+00
 ***** Axes restored to original set *****
 -------------------------------------------------------------------
 Center     Atomic                   Forces (Hartrees/Bohr)
 Number     Number              X              Y              Z
 -------------------------------------------------------------------
      1        7           0.000000000   -0.267166545   -0.053433309
      2        7           0.000000000    0.267166545    0.053433309
 -------------------------------------------------------------------
 Cartesian Forces:  Max     0.267166545 RMS     0.157303403
 Leave Link  716 at Fri Apr 15 17:24:32 2016, MaxMem=   104857600 cpu:         0.0
 (Enter /home/projets/algogen/g09.D01/g09/l103.exe)

 GradGradGradGradGradGradGradGradGradGradGradGradGradGradGradGradGradGrad
 Berny optimization.
 FormGI is forming the generalized inverse of G from B-inverse, IUseBI=4.
 Internal  Forces:  Max     0.272457486 RMS     0.272457486
 Search for a local minimum.
 Step number   1 out of a maximum of   20
 All quantities printed in internal units (Hartrees-Bohrs-Radians)
 RMS Force = .27246D+00 SwitMx=.10000D-02 MixMth= 1
 Mixed Optimization -- RFO/linear search
 Second derivative matrix not updated -- first step.
 The second derivative matrix:
                          R1
           R1           2.90322
 ITU=  0
     Eigenvalues ---    2.90322
 RFO step:  Lambda=-2.53478743D-02 EMin= 2.90322438D+00
 Linear search not attempted -- first point.
 Iteration  1 RMS(Cart)=  0.06578514 RMS(Int)=  0.00000000
 Iteration  2 RMS(Cart)=  0.00000000 RMS(Int)=  0.00000000
 ITry= 1 IFail=0 DXMaxC= 4.56D-02 DCOld= 1.00D+10 DXMaxT= 3.00D-01 DXLimC= 3.00D+00 Rises=F
 ClnCor:  largest displacement from symmetrization is 4.58D-16 for atom     2.
 Variable       Old X    -DE/DX   Delta X   Delta X   Delta X     New X
                                 (Linear)    (Quad)   (Total)
    R1        1.92715   0.27246   0.00000   0.09303   0.09303   2.02018
         Item               Value     Threshold  Converged?
 Maximum Force            0.272457     0.000450     NO 
 RMS     Force            0.272457     0.000300     NO 
 Maximum Displacement     0.045614     0.001800     NO 
 RMS     Displacement     0.065785     0.001200     NO 
 Predicted change in Energy=-1.278363D-02
 Lowest energy point so far.  Saving SCF results.
 GradGradGradGradGradGradGradGradGradGradGradGradGradGradGradGradGradGrad

 Leave Link  103 at Fri Apr 15 17:24:32 2016, MaxMem=   104857600 cpu:         0.0
 (Enter /home/projets/algogen/g09.D01/g09/l202.exe)
                          Input orientation:                          
 ---------------------------------------------------------------------
 Center     Atomic      Atomic             Coordinates (Angstroms)
 Number     Number       Type             X           Y           Z
 ---------------------------------------------------------------------
      1          7           0        0.000000    0.975862   -0.004828
      2          7           0        0.000000    2.024138    0.204828
 ---------------------------------------------------------------------
 Stoichiometry    N2
 Framework group  D*H[C*(N.N)]
 Deg. of freedom     1
 Full point group                 D*H     NOp   8
 RotChk:  IX=0 Diff= 1.42D-16
 Largest Abelian subgroup         D2H     NOp   8
 Largest concise Abelian subgroup C2      NOp   2
                         Standard orientation:                         
 ---------------------------------------------------------------------
 Center     Atomic      Atomic             Coordinates (Angstroms)
 Number     Number       Type             X           Y           Z
 ---------------------------------------------------------------------
      1          7           0        0.000000    0.000000    0.534518
      2          7           0        0.000000    0.000000   -0.534518
 ---------------------------------------------------------------------
 Rotational constants (GHZ):      0.0000000     63.1596264     63.1596264
 Leave Link  202 at Fri Apr 15 17:24:32 2016, MaxMem=   104857600 cpu:         0.0
 (Enter /home/projets/algogen/g09.D01/g09/l301.exe)
 Standard basis: 6-31G(d) (6D, 7F)
 Ernie: Thresh=  0.10000D-02 Tol=  0.10000D-05 Strict=F.
 There are     8 symmetry adapted cartesian basis functions of AG  symmetry.
 There are     1 symmetry adapted cartesian basis functions of B1G symmetry.
 There are     3 symmetry adapted cartesian basis functions of B2G symmetry.
 There are     3 symmetry adapted cartesian basis functions of B3G symmetry.
 There are     1 symmetry adapted cartesian basis functions of AU  symmetry.
 There are     8 symmetry adapted cartesian basis functions of B1U symmetry.
 There are     3 symmetry adapted cartesian basis functions of B2U symmetry.
 There are     3 symmetry adapted cartesian basis functions of B3U symmetry.
 There are     8 symmetry adapted basis functions of AG  symmetry.
 There are     1 symmetry adapted basis functions of B1G symmetry.
 There are     3 symmetry adapted basis functions of B2G symmetry.
 There are     3 symmetry adapted basis functions of B3G symmetry.
 There are     1 symmetry adapted basis functions of AU  symmetry.
 There are     8 symmetry adapted basis functions of B1U symmetry.
 There are     3 symmetry adapted basis functions of B2U symmetry.
 There are     3 symmetry adapted basis functions of B3U symmetry.
    30 basis functions,    56 primitive gaussians,    30 cartesian basis functions
     7 alpha electrons        7 beta electrons
       nuclear repulsion energy        24.2552124839 Hartrees.
 IExCor=    0 DFT=F Ex=HF Corr=None ExCW=0 ScaHFX=  1.000000
 ScaDFX=  1.000000  1.000000  1.000000  1.000000 ScalE2=  1.000000  1.000000
 IRadAn=      0 IRanWt=     -1 IRanGd=            0 ICorTp=0 IEmpDi=  4
 NAtoms=    2 NActive=    2 NUniq=    1 SFac= 4.00D+00 NAtFMM=   60 NAOKFM=F Big=F
 Integral buffers will be    131072 words long.
 Raffenetti 1 integral format.
 Two-electron integral symmetry is turned on.
 Leave Link  301 at Fri Apr 15 17:24:32 2016, MaxMem=   104857600 cpu:         0.0
 (Enter /home/projets/algogen/g09.D01/g09/l302.exe)
 NPDir=0 NMtPBC=     1 NCelOv=     1 NCel=       1 NClECP=     1 NCelD=      1
         NCelK=      1 NCelE2=     1 NClLst=     1 CellRange=     0.0.
 One-electron integrals computed using PRISM.
 One-electron integral symmetry used in STVInt
 NBasis=    30 RedAO= T EigKep=  5.40D-03  NBF=     8     1     3     3     1     8     3     3
 NBsUse=    30 1.00D-06 EigRej= -1.00D+00 NBFU=     8     1     3     3     1     8     3     3
 Leave Link  302 at Fri Apr 15 17:24:32 2016, MaxMem=   104857600 cpu:         0.1
 (Enter /home/projets/algogen/g09.D01/g09/l303.exe)
 DipDrv:  MaxL=1.
 Leave Link  303 at Fri Apr 15 17:24:32 2016, MaxMem=   104857600 cpu:         0.0
 (Enter /home/projets/algogen/g09.D01/g09/l401.exe)
 Initial guess from the checkpoint file:  "/scratch_l/henon/n2_7010/Gau-7021.chk"
 B after Tr=     0.000000    0.000000    0.000000
         Rot=    1.000000    0.000000    0.000000    0.000000 Ang=   0.00 deg.
 Guess basis will be translated and rotated to current coordinates.
 JPrj=2 DoOrth=T DoCkMO=T.
 Initial guess orbital symmetries:
       Occupied  (SGG) (SGU) (SGG) (SGU) (PIU) (PIU) (SGG)
       Virtual   (SGG) (SGG) (SGG) (DLTG) (SGG) (DLTG) (PIG) (PIG)
                 (PIG) (PIG) (PIG) (PIG) (DLTU) (SGU) (SGU) (DLTU)
                 (SGU) (SGU) (SGU) (PIU) (PIU) (PIU) (PIU)
 The electronic state of the initial guess is 1-SGG.
 Generating alternative initial guess.
 ExpMin= 2.12D-01 ExpMax= 4.17D+03 ExpMxC= 6.27D+02 IAcc=1 IRadAn=         1 AccDes= 0.00D+00
 Harris functional with IExCor=  205 and IRadAn=       1 diagonalized for initial guess.
 HarFok:  IExCor=  205 AccDes= 0.00D+00 IRadAn=         1 IDoV= 1 UseB2=F ITyADJ=14
 ICtDFT=  3500011 ScaDFX=  1.000000  1.000000  1.000000  1.000000
 FoFCou: FMM=F IPFlag=           0 FMFlag=      100000 FMFlg1=           0
         NFxFlg=           0 DoJE=T BraDBF=F KetDBF=T FulRan=T
         wScrn=  0.000000 ICntrl=     500 IOpCl=  0 I1Cent=   200000004 NGrid=           0
         NMat0=    1 NMatS0=      1 NMatT0=    0 NMatD0=    1 NMtDS0=    0 NMtDT0=    0
 Petite list used in FoFCou.
 Harris En= -108.903775088351    
 Leave Link  401 at Fri Apr 15 17:24:32 2016, MaxMem=   104857600 cpu:         0.2
 (Enter /home/projets/algogen/g09.D01/g09/l502.exe)
 Closed shell SCF:
 Using DIIS extrapolation, IDIIS=  1040.
 Integral symmetry usage will be decided dynamically.
 Keep R1 ints in memory in symmetry-blocked form, NReq=959811.
 IVT=       21766 IEndB=       21766 NGot=   104857600 MDV=   104817788
 LenX=   104817788 LenY=   104816447
 Requested convergence on RMS density matrix=1.00D-08 within 128 cycles.
 Requested convergence on MAX density matrix=1.00D-06.
 Requested convergence on             energy=1.00D-06.
 No special actions if energy rises.
 FoFCou: FMM=F IPFlag=           0 FMFlag=           0 FMFlg1=           0
         NFxFlg=           0 DoJE=F BraDBF=F KetDBF=F FulRan=T
         wScrn=  0.000000 ICntrl=     600 IOpCl=  0 I1Cent=           0 NGrid=           0
         NMat0=    1 NMatS0=    465 NMatT0=    0 NMatD0=    1 NMtDS0=    0 NMtDT0=    0
 Petite list used in FoFCou.

 Cycle   1  Pass 1  IDiag  1:
 E= -108.941448334968    
 DIIS: error= 9.20D-03 at cycle   1 NSaved=   1.
 NSaved= 1 IEnMin= 1 EnMin= -108.941448334968     IErMin= 1 ErrMin= 9.20D-03
 ErrMax= 9.20D-03  0.00D+00 EMaxC= 1.00D-01 BMatC= 1.90D-03 BMatP= 1.90D-03
 IDIUse=3 WtCom= 9.08D-01 WtEn= 9.20D-02
 Coeff-Com:  0.100D+01
 Coeff-En:   0.100D+01
 Coeff:      0.100D+01
 Gap=     1.049 Goal=   None    Shift=    0.000
 GapD=    1.049 DampG=2.000 DampE=1.000 DampFc=2.0000 IDamp=-1.
 RMSDP=1.27D-03 MaxDP=8.02D-03              OVMax= 7.62D-03

 Cycle   2  Pass 1  IDiag  1:
 E= -108.943495892670     Delta-E=       -0.002047557702 Rises=F Damp=F
 DIIS: error= 2.58D-03 at cycle   2 NSaved=   2.
 NSaved= 2 IEnMin= 2 EnMin= -108.943495892670     IErMin= 2 ErrMin= 2.58D-03
 ErrMax= 2.58D-03  0.00D+00 EMaxC= 1.00D-01 BMatC= 1.37D-04 BMatP= 1.90D-03
 IDIUse=3 WtCom= 9.74D-01 WtEn= 2.58D-02
 Coeff-Com:  0.823D-01 0.918D+00
 Coeff-En:   0.000D+00 0.100D+01
 Coeff:      0.802D-01 0.920D+00
 Gap=     0.811 Goal=   None    Shift=    0.000
 RMSDP=4.51D-04 MaxDP=3.76D-03 DE=-2.05D-03 OVMax= 4.19D-03

 Cycle   3  Pass 1  IDiag  1:
 E= -108.943619165406     Delta-E=       -0.000123272736 Rises=F Damp=F
 DIIS: error= 5.20D-04 at cycle   3 NSaved=   3.
 NSaved= 3 IEnMin= 3 EnMin= -108.943619165406     IErMin= 3 ErrMin= 5.20D-04
 ErrMax= 5.20D-04  0.00D+00 EMaxC= 1.00D-01 BMatC= 6.26D-06 BMatP= 1.37D-04
 IDIUse=3 WtCom= 9.95D-01 WtEn= 5.20D-03
 Coeff-Com: -0.569D-01-0.100D+00 0.116D+01
 Coeff-En:   0.000D+00 0.000D+00 0.100D+01
 Coeff:     -0.566D-01-0.998D-01 0.116D+01
 Gap=     0.810 Goal=   None    Shift=    0.000
 RMSDP=1.69D-04 MaxDP=1.61D-03 DE=-1.23D-04 OVMax= 1.18D-03

 Cycle   4  Pass 1  IDiag  1:
 E= -108.943628917684     Delta-E=       -0.000009752278 Rises=F Damp=F
 DIIS: error= 4.46D-05 at cycle   4 NSaved=   4.
 NSaved= 4 IEnMin= 4 EnMin= -108.943628917684     IErMin= 4 ErrMin= 4.46D-05
 ErrMax= 4.46D-05  0.00D+00 EMaxC= 1.00D-01 BMatC= 3.84D-08 BMatP= 6.26D-06
 IDIUse=1 WtCom= 1.00D+00 WtEn= 0.00D+00
 Coeff-Com:  0.800D-02 0.613D-02-0.179D+00 0.117D+01
 Coeff:      0.800D-02 0.613D-02-0.179D+00 0.117D+01
 Gap=     0.810 Goal=   None    Shift=    0.000
 RMSDP=2.96D-05 MaxDP=3.69D-04 DE=-9.75D-06 OVMax= 1.04D-04

 Cycle   5  Pass 1  IDiag  1:
 E= -108.943628983657     Delta-E=       -0.000000065973 Rises=F Damp=F
 DIIS: error= 6.76D-06 at cycle   5 NSaved=   5.
 NSaved= 5 IEnMin= 5 EnMin= -108.943628983657     IErMin= 5 ErrMin= 6.76D-06
 ErrMax= 6.76D-06  0.00D+00 EMaxC= 1.00D-01 BMatC= 6.41D-10 BMatP= 3.84D-08
 IDIUse=1 WtCom= 1.00D+00 WtEn= 0.00D+00
 Coeff-Com: -0.140D-02-0.708D-03 0.340D-01-0.306D+00 0.127D+01
 Coeff:     -0.140D-02-0.708D-03 0.340D-01-0.306D+00 0.127D+01
 Gap=     0.810 Goal=   None    Shift=    0.000
 RMSDP=2.90D-06 MaxDP=3.40D-05 DE=-6.60D-08 OVMax= 1.49D-05

 Cycle   6  Pass 1  IDiag  1:
 E= -108.943628984755     Delta-E=       -0.000000001098 Rises=F Damp=F
 DIIS: error= 6.43D-07 at cycle   6 NSaved=   6.
 NSaved= 6 IEnMin= 6 EnMin= -108.943628984755     IErMin= 6 ErrMin= 6.43D-07
 ErrMax= 6.43D-07  0.00D+00 EMaxC= 1.00D-01 BMatC= 4.86D-12 BMatP= 6.41D-10
 IDIUse=1 WtCom= 1.00D+00 WtEn= 0.00D+00
 Coeff-Com:  0.233D-03 0.995D-04-0.564D-02 0.557D-01-0.283D+00 0.123D+01
 Coeff:      0.233D-03 0.995D-04-0.564D-02 0.557D-01-0.283D+00 0.123D+01
 Gap=     0.810 Goal=   None    Shift=    0.000
 RMSDP=2.19D-07 MaxDP=2.68D-06 DE=-1.10D-09 OVMax= 1.70D-06

 Cycle   7  Pass 1  IDiag  1:
 E= -108.943628984764     Delta-E=       -0.000000000008 Rises=F Damp=F
 DIIS: error= 1.87D-08 at cycle   7 NSaved=   7.
 NSaved= 7 IEnMin= 7 EnMin= -108.943628984764     IErMin= 7 ErrMin= 1.87D-08
 ErrMax= 1.87D-08  0.00D+00 EMaxC= 1.00D-01 BMatC= 6.60D-15 BMatP= 4.86D-12
 IDIUse=1 WtCom= 1.00D+00 WtEn= 0.00D+00
 Coeff-Com: -0.513D-05 0.237D-05 0.122D-03-0.156D-02 0.874D-02-0.621D-01
 Coeff-Com:  0.105D+01
 Coeff:     -0.513D-05 0.237D-05 0.122D-03-0.156D-02 0.874D-02-0.621D-01
 Coeff:      0.105D+01
 Gap=     0.810 Goal=   None    Shift=    0.000
 RMSDP=4.25D-09 MaxDP=5.09D-08 DE=-8.19D-12 OVMax= 4.70D-08

 SCF Done:  E(RHF) =  -108.943628985     A.U. after    7 cycles
            NFock=  7  Conv=0.43D-08     -V/T= 2.0028
 KE= 1.086422658069D+02 PE=-3.040113202508D+02 EE= 6.217021297533D+01
 Leave Link  502 at Fri Apr 15 17:24:32 2016, MaxMem=   104857600 cpu:         0.1
 (Enter /home/projets/algogen/g09.D01/g09/l701.exe)
 Compute integral first derivatives.
 ... and contract with generalized density number  0.
 Leave Link  701 at Fri Apr 15 17:24:32 2016, MaxMem=   104857600 cpu:         0.1
 (Enter /home/projets/algogen/g09.D01/g09/l702.exe)
 L702 exits ... SP integral derivatives will be done elsewhere.
 Leave Link  702 at Fri Apr 15 17:24:32 2016, MaxMem=   104857600 cpu:         0.0
 (Enter /home/projets/algogen/g09.D01/g09/l703.exe)
 Compute integral first derivatives, UseDBF=F ICtDFT=           0.
 Integral derivatives from FoFJK, PRISM(SPDF).
 Calling FoFJK, ICntrl=      2127 FMM=F ISym2X=1 I1Cent= 0 IOpClX= 0 NMat=1 NMatS=1 NMatT=0.
 FoFJK:  IHMeth= 1 ICntrl=    2127 DoSepK=F KAlg= 0 I1Cent=   0 FoldK=F
 IRaf=         0 NMat=   1 IRICut=       1 DoRegI=T DoRafI=F ISym2E= 1.
 FoFCou: FMM=F IPFlag=           0 FMFlag=      100000 FMFlg1=         800
         NFxFlg=           0 DoJE=F BraDBF=F KetDBF=F FulRan=T
         wScrn=  0.000000 ICntrl=    2127 IOpCl=  0 I1Cent=           0 NGrid=           0
         NMat0=    1 NMatS0=      1 NMatT0=    0 NMatD0=    1 NMtDS0=    0 NMtDT0=    0
 Petite list used in FoFCou.
 Leave Link  703 at Fri Apr 15 17:24:32 2016, MaxMem=   104857600 cpu:         0.1
 (Enter /home/projets/algogen/g09.D01/g09/l716.exe)
 Dipole        =-1.38050658D-30 0.00000000D+00 0.00000000D+00
 ***** Axes restored to original set *****
 -------------------------------------------------------------------
 Center     Atomic                   Forces (Hartrees/Bohr)
 Number     Number              X              Y              Z
 -------------------------------------------------------------------
      1        7           0.000000000   -0.035993558   -0.007198712
      2        7           0.000000000    0.035993558    0.007198712
 -------------------------------------------------------------------
 Cartesian Forces:  Max     0.035993558 RMS     0.021192433
 Leave Link  716 at Fri Apr 15 17:24:32 2016, MaxMem=   104857600 cpu:         0.0
 (Enter /home/projets/algogen/g09.D01/g09/l103.exe)

 GradGradGradGradGradGradGradGradGradGradGradGradGradGradGradGradGradGrad
 Berny optimization.
 Using GEDIIS/GDIIS optimizer.
 Red2BG is reusing G-inverse.
 Internal  Forces:  Max     0.036706371 RMS     0.036706371
 Search for a local minimum.
 Step number   2 out of a maximum of   20
 All quantities printed in internal units (Hartrees-Bohrs-Radians)
 RMS Force = .36706D-01 SwitMx=.10000D-02 MixMth= 1
 Mixed Optimization -- RFO/linear search
 Update second derivatives using D2CorX and points    1    2
 DE= -1.38D-02 DEPred=-1.28D-02 R= 1.08D+00
 TightC=F SS=  1.41D+00  RLast= 9.30D-02 DXNew= 5.0454D-01 2.7910D-01
 Trust test= 1.08D+00 RLast= 9.30D-02 DXMaxT set to 3.00D-01
 The second derivative matrix:
                          R1
           R1           2.53403
 ITU=  1  0
 Use linear search instead of GDIIS.
     Eigenvalues ---    2.53403
 RFO step:  Lambda= 0.00000000D+00 EMin= 2.53402534D+00
 Quartic linear search produced a step of  0.19080.
 Iteration  1 RMS(Cart)=  0.01255153 RMS(Int)=  0.00000000
 Iteration  2 RMS(Cart)=  0.00000000 RMS(Int)=  0.00000000
 ITry= 1 IFail=0 DXMaxC= 8.70D-03 DCOld= 1.00D+10 DXMaxT= 3.00D-01 DXLimC= 3.00D+00 Rises=F
 ClnCor:  largest displacement from symmetrization is 4.58D-16 for atom     2.
 Variable       Old X    -DE/DX   Delta X   Delta X   Delta X     New X
                                 (Linear)    (Quad)   (Total)
    R1        2.02018   0.03671   0.01775   0.00000   0.01775   2.03793
         Item               Value     Threshold  Converged?
 Maximum Force            0.036706     0.000450     NO 
 RMS     Force            0.036706     0.000300     NO 
 Maximum Displacement     0.008703     0.001800     NO 
 RMS     Displacement     0.012552     0.001200     NO 
 Predicted change in Energy=-2.523454D-04
 Lowest energy point so far.  Saving SCF results.
 GradGradGradGradGradGradGradGradGradGradGradGradGradGradGradGradGradGrad

 Leave Link  103 at Fri Apr 15 17:24:32 2016, MaxMem=   104857600 cpu:         0.0
 (Enter /home/projets/algogen/g09.D01/g09/l202.exe)
                          Input orientation:                          
 ---------------------------------------------------------------------
 Center     Atomic      Atomic             Coordinates (Angstroms)
 Number     Number       Type             X           Y           Z
 ---------------------------------------------------------------------
      1          7           0        0.000000    0.971257   -0.005749
      2          7           0        0.000000    2.028743    0.205749
 ---------------------------------------------------------------------
 Stoichiometry    N2
 Framework group  D*H[C*(N.N)]
 Deg. of freedom     1
 Full point group                 D*H     NOp   8
 RotChk:  IX=0 Diff= 1.42D-16
 Largest Abelian subgroup         D2H     NOp   8
 Largest concise Abelian subgroup C2      NOp   2
                         Standard orientation:                         
 ---------------------------------------------------------------------
 Center     Atomic      Atomic             Coordinates (Angstroms)
 Number     Number       Type             X           Y           Z
 ---------------------------------------------------------------------
      1          7           0        0.000000    0.000000    0.539214
      2          7           0        0.000000    0.000000   -0.539214
 ---------------------------------------------------------------------
 Rotational constants (GHZ):      0.0000000     62.0641693     62.0641693
 Leave Link  202 at Fri Apr 15 17:24:32 2016, MaxMem=   104857600 cpu:         0.0
 (Enter /home/projets/algogen/g09.D01/g09/l301.exe)
 Standard basis: 6-31G(d) (6D, 7F)
 Ernie: Thresh=  0.10000D-02 Tol=  0.10000D-05 Strict=F.
 There are     8 symmetry adapted cartesian basis functions of AG  symmetry.
 There are     1 symmetry adapted cartesian basis functions of B1G symmetry.
 There are     3 symmetry adapted cartesian basis functions of B2G symmetry.
 There are     3 symmetry adapted cartesian basis functions of B3G symmetry.
 There are     1 symmetry adapted cartesian basis functions of AU  symmetry.
 There are     8 symmetry adapted cartesian basis functions of B1U symmetry.
 There are     3 symmetry adapted cartesian basis functions of B2U symmetry.
 There are     3 symmetry adapted cartesian basis functions of B3U symmetry.
 There are     8 symmetry adapted basis functions of AG  symmetry.
 There are     1 symmetry adapted basis functions of B1G symmetry.
 There are     3 symmetry adapted basis functions of B2G symmetry.
 There are     3 symmetry adapted basis functions of B3G symmetry.
 There are     1 symmetry adapted basis functions of AU  symmetry.
 There are     8 symmetry adapted basis functions of B1U symmetry.
 There are     3 symmetry adapted basis functions of B2U symmetry.
 There are     3 symmetry adapted basis functions of B3U symmetry.
    30 basis functions,    56 primitive gaussians,    30 cartesian basis functions
     7 alpha electrons        7 beta electrons
       nuclear repulsion energy        24.0439480325 Hartrees.
 IExCor=    0 DFT=F Ex=HF Corr=None ExCW=0 ScaHFX=  1.000000
 ScaDFX=  1.000000  1.000000  1.000000  1.000000 ScalE2=  1.000000  1.000000
 IRadAn=      0 IRanWt=     -1 IRanGd=            0 ICorTp=0 IEmpDi=  4
 NAtoms=    2 NActive=    2 NUniq=    1 SFac= 4.00D+00 NAtFMM=   60 NAOKFM=F Big=F
 Integral buffers will be    131072 words long.
 Raffenetti 1 integral format.
 Two-electron integral symmetry is turned on.
 Leave Link  301 at Fri Apr 15 17:24:33 2016, MaxMem=   104857600 cpu:         0.0
 (Enter /home/projets/algogen/g09.D01/g09/l302.exe)
 NPDir=0 NMtPBC=     1 NCelOv=     1 NCel=       1 NClECP=     1 NCelD=      1
         NCelK=      1 NCelE2=     1 NClLst=     1 CellRange=     0.0.
 One-electron integrals computed using PRISM.
 One-electron integral symmetry used in STVInt
 NBasis=    30 RedAO= T EigKep=  5.64D-03  NBF=     8     1     3     3     1     8     3     3
 NBsUse=    30 1.00D-06 EigRej= -1.00D+00 NBFU=     8     1     3     3     1     8     3     3
 Leave Link  302 at Fri Apr 15 17:24:33 2016, MaxMem=   104857600 cpu:         0.1
 (Enter /home/projets/algogen/g09.D01/g09/l303.exe)
 DipDrv:  MaxL=1.
 Leave Link  303 at Fri Apr 15 17:24:33 2016, MaxMem=   104857600 cpu:         0.0
 (Enter /home/projets/algogen/g09.D01/g09/l401.exe)
 Initial guess from the checkpoint file:  "/scratch_l/henon/n2_7010/Gau-7021.chk"
 B after Tr=     0.000000    0.000000    0.000000
         Rot=    1.000000    0.000000    0.000000    0.000000 Ang=   0.00 deg.
 Guess basis will be translated and rotated to current coordinates.
 JPrj=2 DoOrth=T DoCkMO=T.
 Initial guess orbital symmetries:
       Occupied  (SGG) (SGU) (SGG) (SGU) (SGG) (PIU) (PIU)
       Virtual   (SGG) (SGG) (SGG) (DLTG) (SGG) (DLTG) (PIG) (PIG)
                 (PIG) (PIG) (PIG) (PIG) (DLTU) (SGU) (SGU) (DLTU)
                 (SGU) (SGU) (SGU) (PIU) (PIU) (PIU) (PIU)
 The electronic state of the initial guess is 1-SGG.
 Leave Link  401 at Fri Apr 15 17:24:33 2016, MaxMem=   104857600 cpu:         0.1
 (Enter /home/projets/algogen/g09.D01/g09/l502.exe)
 Closed shell SCF:
 Using DIIS extrapolation, IDIIS=  1040.
 Integral symmetry usage will be decided dynamically.
 Keep R1 ints in memory in symmetry-blocked form, NReq=959811.
 IVT=       21766 IEndB=       21766 NGot=   104857600 MDV=   104817788
 LenX=   104817788 LenY=   104816447
 Requested convergence on RMS density matrix=1.00D-08 within 128 cycles.
 Requested convergence on MAX density matrix=1.00D-06.
 Requested convergence on             energy=1.00D-06.
 No special actions if energy rises.
 FoFCou: FMM=F IPFlag=           0 FMFlag=           0 FMFlg1=           0
         NFxFlg=           0 DoJE=F BraDBF=F KetDBF=F FulRan=T
         wScrn=  0.000000 ICntrl=     600 IOpCl=  0 I1Cent=           0 NGrid=           0
         NMat0=    1 NMatS0=    465 NMatT0=    0 NMatD0=    1 NMtDS0=    0 NMtDT0=    0
 Petite list used in FoFCou.

 Cycle   1  Pass 1  IDiag  1:
 E= -108.943874798559    
 DIIS: error= 1.65D-03 at cycle   1 NSaved=   1.
 NSaved= 1 IEnMin= 1 EnMin= -108.943874798559     IErMin= 1 ErrMin= 1.65D-03
 ErrMax= 1.65D-03  0.00D+00 EMaxC= 1.00D-01 BMatC= 6.49D-05 BMatP= 6.49D-05
 IDIUse=3 WtCom= 9.83D-01 WtEn= 1.65D-02
 Coeff-Com:  0.100D+01
 Coeff-En:   0.100D+01
 Coeff:      0.100D+01
 Gap=     1.039 Goal=   None    Shift=    0.000
 GapD=    1.039 DampG=2.000 DampE=1.000 DampFc=2.0000 IDamp=-1.
 RMSDP=2.38D-04 MaxDP=1.44D-03              OVMax= 1.38D-03

 Cycle   2  Pass 1  IDiag  1:
 E= -108.943944843731     Delta-E=       -0.000070045171 Rises=F Damp=F
 DIIS: error= 4.86D-04 at cycle   2 NSaved=   2.
 NSaved= 2 IEnMin= 2 EnMin= -108.943944843731     IErMin= 2 ErrMin= 4.86D-04
 ErrMax= 4.86D-04  0.00D+00 EMaxC= 1.00D-01 BMatC= 4.66D-06 BMatP= 6.49D-05
 IDIUse=3 WtCom= 9.95D-01 WtEn= 4.86D-03
 Coeff-Com:  0.744D-01 0.926D+00
 Coeff-En:   0.000D+00 0.100D+01
 Coeff:      0.741D-01 0.926D+00
 Gap=     0.801 Goal=   None    Shift=    0.000
 RMSDP=8.41D-05 MaxDP=7.04D-04 DE=-7.00D-05 OVMax= 7.87D-04

 Cycle   3  Pass 1  IDiag  1:
 E= -108.943949118200     Delta-E=       -0.000004274469 Rises=F Damp=F
 DIIS: error= 9.46D-05 at cycle   3 NSaved=   3.
 NSaved= 3 IEnMin= 3 EnMin= -108.943949118200     IErMin= 3 ErrMin= 9.46D-05
 ErrMax= 9.46D-05  0.00D+00 EMaxC= 1.00D-01 BMatC= 2.20D-07 BMatP= 4.66D-06
 IDIUse=1 WtCom= 1.00D+00 WtEn= 0.00D+00
 Coeff-Com: -0.577D-01-0.941D-01 0.115D+01
 Coeff:     -0.577D-01-0.941D-01 0.115D+01
 Gap=     0.801 Goal=   None    Shift=    0.000
 RMSDP=3.12D-05 MaxDP=2.93D-04 DE=-4.27D-06 OVMax= 2.21D-04

 Cycle   4  Pass 1  IDiag  1:
 E= -108.943949457893     Delta-E=       -0.000000339693 Rises=F Damp=F
 DIIS: error= 7.77D-06 at cycle   4 NSaved=   4.
 NSaved= 4 IEnMin= 4 EnMin= -108.943949457893     IErMin= 4 ErrMin= 7.77D-06
 ErrMax= 7.77D-06  0.00D+00 EMaxC= 1.00D-01 BMatC= 1.18D-09 BMatP= 2.20D-07
 IDIUse=1 WtCom= 1.00D+00 WtEn= 0.00D+00
 Coeff-Com:  0.812D-02 0.587D-02-0.176D+00 0.116D+01
 Coeff:      0.812D-02 0.587D-02-0.176D+00 0.116D+01
 Gap=     0.801 Goal=   None    Shift=    0.000
 RMSDP=5.26D-06 MaxDP=6.57D-05 DE=-3.40D-07 OVMax= 1.85D-05

 Cycle   5  Pass 1  IDiag  1:
 E= -108.943949459910     Delta-E=       -0.000000002018 Rises=F Damp=F
 DIIS: error= 1.17D-06 at cycle   5 NSaved=   5.
 NSaved= 5 IEnMin= 5 EnMin= -108.943949459910     IErMin= 5 ErrMin= 1.17D-06
 ErrMax= 1.17D-06  0.00D+00 EMaxC= 1.00D-01 BMatC= 1.94D-11 BMatP= 1.18D-09
 IDIUse=1 WtCom= 1.00D+00 WtEn= 0.00D+00
 Coeff-Com: -0.144D-02-0.842D-03 0.337D-01-0.299D+00 0.127D+01
 Coeff:     -0.144D-02-0.842D-03 0.337D-01-0.299D+00 0.127D+01
 Gap=     0.801 Goal=   None    Shift=    0.000
 RMSDP=5.11D-07 MaxDP=5.97D-06 DE=-2.02D-09 OVMax= 2.53D-06

 Cycle   6  Pass 1  IDiag  1:
 E= -108.943949459943     Delta-E=       -0.000000000033 Rises=F Damp=F
 DIIS: error= 1.24D-07 at cycle   6 NSaved=   6.
 NSaved= 6 IEnMin= 6 EnMin= -108.943949459943     IErMin= 6 ErrMin= 1.24D-07
 ErrMax= 1.24D-07  0.00D+00 EMaxC= 1.00D-01 BMatC= 1.75D-13 BMatP= 1.94D-11
 IDIUse=1 WtCom= 1.00D+00 WtEn= 0.00D+00
 Coeff-Com:  0.253D-03 0.152D-03-0.599D-02 0.571D-01-0.299D+00 0.125D+01
 Coeff:      0.253D-03 0.152D-03-0.599D-02 0.571D-01-0.299D+00 0.125D+01
 Gap=     0.801 Goal=   None    Shift=    0.000
 RMSDP=3.60D-08 MaxDP=4.20D-07 DE=-3.30D-11 OVMax= 3.18D-07

 Cycle   7  Pass 1  IDiag  1:
 E= -108.943949459944     Delta-E=        0.000000000000 Rises=F Damp=F
 DIIS: error= 3.64D-09 at cycle   7 NSaved=   7.
 NSaved= 7 IEnMin= 7 EnMin= -108.943949459944     IErMin= 7 ErrMin= 3.64D-09
 ErrMax= 3.64D-09  0.00D+00 EMaxC= 1.00D-01 BMatC= 1.42D-16 BMatP= 1.75D-13
 IDIUse=1 WtCom= 1.00D+00 WtEn= 0.00D+00
 Coeff-Com: -0.165D-04-0.850D-05 0.393D-03-0.389D-02 0.212D-01-0.106D+00
 Coeff-Com:  0.109D+01
 Coeff:     -0.165D-04-0.850D-05 0.393D-03-0.389D-02 0.212D-01-0.106D+00
 Coeff:      0.109D+01
 Gap=     0.801 Goal=   None    Shift=    0.000
 RMSDP=8.21D-10 MaxDP=1.11D-08 DE=-3.13D-13 OVMax= 7.03D-09

 SCF Done:  E(RHF) =  -108.943949460     A.U. after    7 cycles
            NFock=  7  Conv=0.82D-09     -V/T= 2.0034
 KE= 1.085743336925D+02 PE=-3.035353493863D+02 EE= 6.197311820131D+01
 Leave Link  502 at Fri Apr 15 17:24:33 2016, MaxMem=   104857600 cpu:         0.1
 (Enter /home/projets/algogen/g09.D01/g09/l701.exe)
 Compute integral first derivatives.
 ... and contract with generalized density number  0.
 Leave Link  701 at Fri Apr 15 17:24:33 2016, MaxMem=   104857600 cpu:         0.1
 (Enter /home/projets/algogen/g09.D01/g09/l702.exe)
 L702 exits ... SP integral derivatives will be done elsewhere.
 Leave Link  702 at Fri Apr 15 17:24:33 2016, MaxMem=   104857600 cpu:         0.0
 (Enter /home/projets/algogen/g09.D01/g09/l703.exe)
 Compute integral first derivatives, UseDBF=F ICtDFT=           0.
 Integral derivatives from FoFJK, PRISM(SPDF).
 Calling FoFJK, ICntrl=      2127 FMM=F ISym2X=1 I1Cent= 0 IOpClX= 0 NMat=1 NMatS=1 NMatT=0.
 FoFJK:  IHMeth= 1 ICntrl=    2127 DoSepK=F KAlg= 0 I1Cent=   0 FoldK=F
 IRaf=         0 NMat=   1 IRICut=       1 DoRegI=T DoRafI=F ISym2E= 1.
 FoFCou: FMM=F IPFlag=           0 FMFlag=      100000 FMFlg1=         800
         NFxFlg=           0 DoJE=F BraDBF=F KetDBF=F FulRan=T
         wScrn=  0.000000 ICntrl=    2127 IOpCl=  0 I1Cent=           0 NGrid=           0
         NMat0=    1 NMatS0=      1 NMatT0=    0 NMatD0=    1 NMtDS0=    0 NMtDT0=    0
 Petite list used in FoFCou.
 Leave Link  703 at Fri Apr 15 17:24:33 2016, MaxMem=   104857600 cpu:         0.1
 (Enter /home/projets/algogen/g09.D01/g09/l716.exe)
 Dipole        =-4.93038066D-31 0.00000000D+00 0.00000000D+00
 ***** Axes restored to original set *****
 -------------------------------------------------------------------
 Center     Atomic                   Forces (Hartrees/Bohr)
 Number     Number              X              Y              Z
 -------------------------------------------------------------------
      1        7           0.000000000    0.000205514    0.000041103
      2        7           0.000000000   -0.000205514   -0.000041103
 -------------------------------------------------------------------
 Cartesian Forces:  Max     0.000205514 RMS     0.000121003
 Leave Link  716 at Fri Apr 15 17:24:33 2016, MaxMem=   104857600 cpu:         0.0
 (Enter /home/projets/algogen/g09.D01/g09/l103.exe)

 GradGradGradGradGradGradGradGradGradGradGradGradGradGradGradGradGradGrad
 Berny optimization.
 Using GEDIIS/GDIIS optimizer.
 Red2BG is reusing G-inverse.
 Internal  Forces:  Max     0.000209584 RMS     0.000209584
 Search for a local minimum.
 Step number   3 out of a maximum of   20
 All quantities printed in internal units (Hartrees-Bohrs-Radians)
 RMS Force = .20958D-03 SwitMx=.10000D-02 MixMth= 2
 Mixed Optimization -- En-DIIS/RFO-DIIS
 Update second derivatives using D2CorX and points    2    3
 DE= -3.20D-04 DEPred=-2.52D-04 R= 1.27D+00
 TightC=F SS=  1.41D+00  RLast= 1.78D-02 DXNew= 5.0454D-01 5.3252D-02
 Trust test= 1.27D+00 RLast= 1.78D-02 DXMaxT set to 3.00D-01
 The second derivative matrix:
                          R1
           R1           2.07971
 ITU=  1  1
 Use linear search instead of GDIIS.
     Eigenvalues ---    2.07971
 RFO step:  Lambda= 0.00000000D+00 EMin= 2.07970850D+00
 Quartic linear search produced a step of -0.00586.
 Iteration  1 RMS(Cart)=  0.00007355 RMS(Int)=  0.00000000
 Iteration  2 RMS(Cart)=  0.00000000 RMS(Int)=  0.00000000
 ITry= 1 IFail=0 DXMaxC= 5.10D-05 DCOld= 1.00D+10 DXMaxT= 3.00D-01 DXLimC= 3.00D+00 Rises=F
 ClnCor:  largest displacement from symmetrization is 5.90D-17 for atom     1.
 Variable       Old X    -DE/DX   Delta X   Delta X   Delta X     New X
                                 (Linear)    (Quad)   (Total)
    R1        2.03793  -0.00021  -0.00010   0.00000  -0.00010   2.03783
         Item               Value     Threshold  Converged?
 Maximum Force            0.000210     0.000450     YES
 RMS     Force            0.000210     0.000300     YES
 Maximum Displacement     0.000051     0.001800     YES
 RMS     Displacement     0.000074     0.001200     YES
 Predicted change in Energy=-1.054956D-08
 Optimization completed.
    -- Stationary point found.
                           ----------------------------
                           !   Optimized Parameters   !
                           ! (Angstroms and Degrees)  !
 --------------------------                            --------------------------
 ! Name  Definition              Value          Derivative Info.                !
 --------------------------------------------------------------------------------
 ! R1    R(1,2)                  1.0784         -DE/DX =   -0.0002              !
 --------------------------------------------------------------------------------
 Lowest energy point so far.  Saving SCF results.
 GradGradGradGradGradGradGradGradGradGradGradGradGradGradGradGradGradGrad

 Largest change from initial coordinates is atom    1       0.029 Angstoms.
 Leave Link  103 at Fri Apr 15 17:24:33 2016, MaxMem=   104857600 cpu:         0.0
 (Enter /home/projets/algogen/g09.D01/g09/l202.exe)
                          Input orientation:                          
 ---------------------------------------------------------------------
 Center     Atomic      Atomic             Coordinates (Angstroms)
 Number     Number       Type             X           Y           Z
 ---------------------------------------------------------------------
      1          7           0        0.000000    0.971257   -0.005749
      2          7           0        0.000000    2.028743    0.205749
 ---------------------------------------------------------------------
 Stoichiometry    N2
 Framework group  D*H[C*(N.N)]
 Deg. of freedom     1
 Full point group                 D*H     NOp   8
 RotChk:  IX=0 Diff= 1.37D-16
 Largest Abelian subgroup         D2H     NOp   8
 Largest concise Abelian subgroup C2      NOp   2
                         Standard orientation:                         
 ---------------------------------------------------------------------
 Center     Atomic      Atomic             Coordinates (Angstroms)
 Number     Number       Type             X           Y           Z
 ---------------------------------------------------------------------
      1          7           0        0.000000    0.000000    0.539214
      2          7           0        0.000000    0.000000   -0.539214
 ---------------------------------------------------------------------
 Rotational constants (GHZ):      0.0000000     62.0641693     62.0641693
 Leave Link  202 at Fri Apr 15 17:24:33 2016, MaxMem=   104857600 cpu:         0.0
 (Enter /home/projets/algogen/g09.D01/g09/l601.exe)
 Copying SCF densities to generalized density rwf, IOpCl= 0 IROHF=0.

 **********************************************************************

            Population analysis using the SCF density.

 **********************************************************************

 Orbital symmetries:
       Occupied  (SGG) (SGU) (SGG) (SGU) (SGG) (PIU) (PIU)
       Virtual   (PIG) (PIG) (SGU) (SGG) (PIU) (PIU) (SGG) (PIG)
                 (PIG) (SGU) (SGU) (DLTG) (DLTG) (PIU) (PIU) (DLTU)
                 (DLTU) (SGG) (PIG) (PIG) (SGU) (SGG) (SGU)
 The electronic state is 1-SGG.
 Alpha  occ. eigenvalues --  -15.69066 -15.68683  -1.48815  -0.76997  -0.63159
 Alpha  occ. eigenvalues --   -0.62010  -0.62010
 Alpha virt. eigenvalues --    0.18073   0.18073   0.59133   0.76912   0.83105
 Alpha virt. eigenvalues --    0.83105   0.83858   1.01938   1.01938   1.09366
 Alpha virt. eigenvalues --    1.51662   1.71186   1.71186   1.87354   1.87354
 Alpha virt. eigenvalues --    2.27242   2.27242   2.74816   2.96485   2.96485
 Alpha virt. eigenvalues --    3.28005   3.68354   4.00873
     Molecular Orbital Coefficients:
                           1         2         3         4         5
                       (SGG)--O  (SGU)--O  (SGG)--O  (SGU)--O  (SGG)--O
     Eigenvalues --   -15.69066 -15.68683  -1.48815  -0.76997  -0.63159
   1 1   N  1S          0.70332   0.70400  -0.16104  -0.14579  -0.05459
   2        2S          0.01696   0.01742   0.33667   0.32942   0.10699
   3        2PX         0.00000   0.00000   0.00000   0.00000   0.00000
   4        2PY         0.00000   0.00000   0.00000   0.00000   0.00000
   5        2PZ        -0.00148  -0.00245  -0.22457   0.22493   0.45811
   6        3S          0.00032  -0.00102   0.18076   0.49010   0.33524
   7        3PX         0.00000   0.00000   0.00000   0.00000   0.00000
   8        3PY         0.00000   0.00000   0.00000   0.00000   0.00000
   9        3PZ         0.00043   0.00037  -0.03337   0.08178   0.20031
  10        4XX        -0.00273  -0.00263  -0.01197   0.00171   0.00709
  11        4YY        -0.00273  -0.00263  -0.01197   0.00171   0.00709
  12        4ZZ        -0.00204  -0.00065   0.03096  -0.01726  -0.02990
  13        4XY         0.00000   0.00000   0.00000   0.00000   0.00000
  14        4XZ         0.00000   0.00000   0.00000   0.00000   0.00000
  15        4YZ         0.00000   0.00000   0.00000   0.00000   0.00000
  16 2   N  1S          0.70332  -0.70400  -0.16104   0.14579  -0.05459
  17        2S          0.01696  -0.01742   0.33667  -0.32942   0.10699
  18        2PX         0.00000   0.00000   0.00000   0.00000   0.00000
  19        2PY         0.00000   0.00000   0.00000   0.00000   0.00000
  20        2PZ         0.00148  -0.00245   0.22457   0.22493  -0.45811
  21        3S          0.00032   0.00102   0.18076  -0.49010   0.33524
  22        3PX         0.00000   0.00000   0.00000   0.00000   0.00000
  23        3PY         0.00000   0.00000   0.00000   0.00000   0.00000
  24        3PZ        -0.00043   0.00037   0.03337   0.08178  -0.20031
  25        4XX        -0.00273   0.00263  -0.01197  -0.00171   0.00709
  26        4YY        -0.00273   0.00263  -0.01197  -0.00171   0.00709
  27        4ZZ        -0.00204   0.00065   0.03096   0.01726  -0.02990
  28        4XY         0.00000   0.00000   0.00000   0.00000   0.00000
  29        4XZ         0.00000   0.00000   0.00000   0.00000   0.00000
  30        4YZ         0.00000   0.00000   0.00000   0.00000   0.00000
                           6         7         8         9        10
                       (PIU)--O  (PIU)--O  (PIG)--V  (PIG)--V  (SGU)--V
     Eigenvalues --    -0.62010  -0.62010   0.18073   0.18073   0.59133
   1 1   N  1S          0.00000   0.00000   0.00000   0.00000  -0.09051
   2        2S          0.00000   0.00000   0.00000   0.00000   0.20474
   3        2PX         0.43500   0.00000   0.43110   0.00000   0.00000
   4        2PY         0.00000   0.43500   0.00000   0.43110   0.00000
   5        2PZ         0.00000   0.00000   0.00000   0.00000  -0.04359
   6        3S          0.00000   0.00000   0.00000   0.00000   4.42004
   7        3PX         0.24460   0.00000   0.69784   0.00000   0.00000
   8        3PY         0.00000   0.24460   0.00000   0.69784   0.00000
   9        3PZ         0.00000   0.00000   0.00000   0.00000  -2.84963
  10        4XX         0.00000   0.00000   0.00000   0.00000  -0.00428
  11        4YY         0.00000   0.00000   0.00000   0.00000  -0.00428
  12        4ZZ         0.00000   0.00000   0.00000   0.00000   0.08752
  13        4XY         0.00000   0.00000   0.00000   0.00000   0.00000
  14        4XZ        -0.04819   0.00000   0.01331   0.00000   0.00000
  15        4YZ         0.00000  -0.04819   0.00000   0.01331   0.00000
  16 2   N  1S          0.00000   0.00000   0.00000   0.00000   0.09051
  17        2S          0.00000   0.00000   0.00000   0.00000  -0.20474
  18        2PX         0.43500   0.00000  -0.43110   0.00000   0.00000
  19        2PY         0.00000   0.43500   0.00000  -0.43110   0.00000
  20        2PZ         0.00000   0.00000   0.00000   0.00000  -0.04359
  21        3S          0.00000   0.00000   0.00000   0.00000  -4.42004
[...]
 Keep R1 ints in memory in symmetry-blocked form, NReq=942647.
 FoFCou: FMM=F IPFlag=           0 FMFlag=           0 FMFlg1=           0
         NFxFlg=           0 DoJE=F BraDBF=F KetDBF=F FulRan=T
         wScrn=  0.000000 ICntrl=     600 IOpCl=  0 I1Cent=           0 NGrid=           0
         NMat0=    1 NMatS0=    465 NMatT0=    0 NMatD0=    1 NMtDS0=    0 NMtDT0=    0
 Petite list used in FoFCou.
          Solving linear equations simultaneously, MaxMat=       0.
          There are     3 degrees of freedom in the 1st order CPHF.  IDoFFX=0 NUNeed=     3.
      3 vectors produced by pass  0 Test12= 5.37D-15 3.33D-08 XBig12= 4.21D+00 1.33D+00.
 AX will form     3 AO Fock derivatives at one time.
      3 vectors produced by pass  1 Test12= 5.37D-15 3.33D-08 XBig12= 7.37D-01 4.49D-01.
      3 vectors produced by pass  2 Test12= 5.37D-15 3.33D-08 XBig12= 1.32D-02 5.42D-02.
      3 vectors produced by pass  3 Test12= 5.37D-15 3.33D-08 XBig12= 1.30D-04 4.89D-03.
      3 vectors produced by pass  4 Test12= 5.37D-15 3.33D-08 XBig12= 2.20D-06 5.38D-04.
      3 vectors produced by pass  5 Test12= 5.37D-15 3.33D-08 XBig12= 3.48D-09 2.65D-05.
      3 vectors produced by pass  6 Test12= 5.37D-15 3.33D-08 XBig12= 1.34D-11 1.53D-06.
      1 vectors produced by pass  7 Test12= 5.37D-15 3.33D-08 XBig12= 5.79D-14 1.25D-07.
 InvSVY:  IOpt=1 It=  1 EMax= 2.22D-16
 Solved reduced A of dimension    22 with     3 vectors.
 End of Minotr F.D. properties file   721 does not exist.
 End of Minotr F.D. properties file   722 does not exist.
 End of Minotr F.D. properties file   788 does not exist.
 Leave Link 1002 at Fri Apr 15 17:24:34 2016, MaxMem=   104857600 cpu:         0.1
 (Enter /home/projets/algogen/g09.D01/g09/l1101.exe)
 Using compressed storage, NAtomX=     2.
 Will process      3 centers per pass.
 Leave Link 1101 at Fri Apr 15 17:24:34 2016, MaxMem=   104857600 cpu:         0.1
 (Enter /home/projets/algogen/g09.D01/g09/l1102.exe)
 Symmetrizing basis deriv contribution to polar:
 IMax=3 JMax=2 DiffMx= 0.00D+00
 Leave Link 1102 at Fri Apr 15 17:24:34 2016, MaxMem=   104857600 cpu:         0.0
 (Enter /home/projets/algogen/g09.D01/g09/l1110.exe)
 Forming Gx(P) for the SCF density, NAtomX=     2.
 Integral derivatives from FoFJK, PRISM(SPDF).
 Do as many integral derivatives as possible in FoFJK.
 G2DrvN: MDV=     104857480.
 G2DrvN: will do     3 centers at a time, making    1 passes.
 PxScal for G2LodP:  IOpCl= 0 ISclPx=1 IMOff=     1 NMtTot=     4 NTT=     465 ScalPx= 1.50D+00
 Calling FoFCou, ICntrl=  3107 FMM=F I1Cent=   0 AccDes= 0.00D+00.
 FoFJK:  IHMeth= 1 ICntrl=    3107 DoSepK=F KAlg= 0 I1Cent=   0 FoldK=F
 IRaf=         0 NMat=   1 IRICut=       1 DoRegI=T DoRafI=F ISym2E= 1.
 FoFCou: FMM=F IPFlag=           0 FMFlag=      100000 FMFlg1=           0
         NFxFlg=           0 DoJE=F BraDBF=F KetDBF=F FulRan=T
         wScrn=  0.000000 ICntrl=    3107 IOpCl=  0 I1Cent=           0 NGrid=           0
         NMat0=    1 NMatS0=      1 NMatT0=    0 NMatD0=    4 NMtDS0=    3 NMtDT0=    0
 Petite list used in FoFCou.
 End of G2Drv F.D. properties file   721 does not exist.
 End of G2Drv F.D. properties file   722 does not exist.
 End of G2Drv F.D. properties file   788 does not exist.
 Leave Link 1110 at Fri Apr 15 17:24:34 2016, MaxMem=   104857600 cpu:         0.2
 (Enter /home/projets/algogen/g09.D01/g09/l1002.exe)
 Minotr:  Closed shell wavefunction.
          IDoAtm=11
          Direct CPHF calculation.
          Differentiating once with respect to electric field.
                with respect to dipole field.
          Differentiating once with respect to nuclear coordinates.
          Using symmetry in CPHF.
          Requested convergence is 1.0D-08 RMS, and 1.0D-07 maximum.
          Secondary convergence is 1.0D-12 RMS, and 1.0D-12 maximum.
          NewPWx=T KeepS1=F KeepF1=F KeepIn=T MapXYZ=F SortEE=F KeepMc=T.
          MDV=     104857546 using IRadAn=       2.
 Keep R1 ints in memory in symmetry-blocked form, NReq=942693.
 FoFCou: FMM=F IPFlag=           0 FMFlag=           0 FMFlg1=           0
         NFxFlg=           0 DoJE=F BraDBF=F KetDBF=F FulRan=T
         wScrn=  0.000000 ICntrl=     600 IOpCl=  0 I1Cent=           0 NGrid=           0
         NMat0=    1 NMatS0=    465 NMatT0=    0 NMatD0=    1 NMtDS0=    0 NMtDT0=    0
 Petite list used in FoFCou.
          Solving linear equations simultaneously, MaxMat=       0.
          There are     6 degrees of freedom in the 1st order CPHF.  IDoFFX=4 NUNeed=     6.
 Will reuse    3 saved solutions.
      3 vectors produced by pass  0 Test12= 2.68D-15 1.67D-08 XBig12= 6.86D-02 1.52D-01.
 AX will form     3 AO Fock derivatives at one time.
      3 vectors produced by pass  1 Test12= 2.68D-15 1.67D-08 XBig12= 3.75D-03 3.99D-02.
      3 vectors produced by pass  2 Test12= 2.68D-15 1.67D-08 XBig12= 1.41D-05 1.85D-03.
      3 vectors produced by pass  3 Test12= 2.68D-15 1.67D-08 XBig12= 9.02D-08 2.05D-04.
      3 vectors produced by pass  4 Test12= 2.68D-15 1.67D-08 XBig12= 4.69D-10 1.35D-05.
      3 vectors produced by pass  5 Test12= 2.68D-15 1.67D-08 XBig12= 1.39D-12 5.77D-07.
      3 vectors produced by pass  6 Test12= 2.68D-15 1.67D-08 XBig12= 7.97D-15 3.83D-08.
 InvSVY:  IOpt=1 It=  1 EMax= 2.22D-16
 Solved reduced A of dimension    21 with     3 vectors.
 FullF1:  Do perturbations    1 to     6.
 Isotropic polarizability for W=    0.000000        8.36 Bohr**3.
 FullF1:  Do perturbations    1 to     6.
 End of Minotr F.D. properties file   721 does not exist.
 End of Minotr F.D. properties file   722 does not exist.
 End of Minotr F.D. properties file   788 does not exist.
 Leave Link 1002 at Fri Apr 15 17:24:34 2016, MaxMem=   104857600 cpu:         0.1
 (Enter /home/projets/algogen/g09.D01/g09/l601.exe)
 Copying SCF densities to generalized density rwf, IOpCl= 0 IROHF=0.

 **********************************************************************

            Population analysis using the SCF density.

 **********************************************************************

 Orbital symmetries:
       Occupied  (SGG) (SGU) (SGG) (SGU) (SGG) (PIU) (PIU)
       Virtual   (PIG) (PIG) (SGU) (SGG) (PIU) (PIU) (SGG) (PIG)
                 (PIG) (SGU) (SGU) (DLTG) (DLTG) (PIU) (PIU) (DLTU)
                 (DLTU) (SGG) (PIG) (PIG) (SGU) (SGG) (SGU)
 The electronic state is 1-SGG.
 Alpha  occ. eigenvalues --  -15.69066 -15.68683  -1.48815  -0.76997  -0.63159
 Alpha  occ. eigenvalues --   -0.62010  -0.62010
 Alpha virt. eigenvalues --    0.18073   0.18073   0.59133   0.76912   0.83105
 Alpha virt. eigenvalues --    0.83105   0.83858   1.01938   1.01938   1.09366
 Alpha virt. eigenvalues --    1.51662   1.71186   1.71186   1.87354   1.87354
 Alpha virt. eigenvalues --    2.27242   2.27242   2.74816   2.96485   2.96485
 Alpha virt. eigenvalues --    3.28005   3.68354   4.00873
          Condensed to atoms (all electrons):
               1          2
     1  N    6.335929   0.664071
     2  N    0.664071   6.335929
 Mulliken charges:
               1
     1  N    0.000000
     2  N    0.000000
 Sum of Mulliken charges =   0.00000
 Mulliken charges with hydrogens summed into heavy atoms:
               1
     1  N    0.000000
     2  N    0.000000
 APT charges:
               1
     1  N    0.000000
     2  N    0.000000
 Sum of APT charges =   0.00000
 APT charges with hydrogens summed into heavy atoms:
               1
     1  N    0.000000
     2  N    0.000000
 Electronic spatial extent (au):  <R**2>=             38.3540
 Charge=              0.0000 electrons
 Dipole moment (field-independent basis, Debye):
    X=              0.0000    Y=              0.0000    Z=              0.0000  Tot=              0.0000
 Quadrupole moment (field-independent basis, Debye-Ang):
   XX=            -10.1826   YY=            -10.1826   ZZ=            -11.6707
   XY=              0.0000   XZ=              0.0000   YZ=              0.0000
 Traceless Quadrupole moment (field-independent basis, Debye-Ang):
   XX=              0.4961   YY=              0.4961   ZZ=             -0.9921
   XY=              0.0000   XZ=              0.0000   YZ=              0.0000
 Octapole moment (field-independent basis, Debye-Ang**2):
  XXX=              0.0000  YYY=              0.0000  ZZZ=              0.0000  XYY=              0.0000
  XXY=              0.0000  XXZ=              0.0000  XZZ=              0.0000  YZZ=              0.0000
  YYZ=              0.0000  XYZ=              0.0000
 Hexadecapole moment (field-independent basis, Debye-Ang**3):
 XXXX=             -8.2507 YYYY=             -8.2507 ZZZZ=            -30.0139 XXXY=              0.0000
 XXXZ=              0.0000 YYYX=              0.0000 YYYZ=              0.0000 ZZZX=              0.0000
 ZZZY=              0.0000 XXYY=             -2.7502 XXZZ=             -5.9787 YYZZ=             -5.9787
 XXYZ=              0.0000 YYXZ=              0.0000 ZZXY=              0.0000
 N-N= 2.404394803253D+01 E-N=-3.035353493787D+02  KE= 1.085743336925D+02
 Symmetry AG   KE= 5.328337447352D+01
 Symmetry B1G  KE= 1.324509444639D-34
 Symmetry B2G  KE= 1.352459170994D-32
 Symmetry B3G  KE= 1.527760277911D-32
 Symmetry AU   KE= 3.237062216806D-34
 Symmetry B1U  KE= 4.877355446126D+01
 Symmetry B2U  KE= 3.258702378845D+00
 Symmetry B3U  KE= 3.258702378845D+00
  Exact polarizability:   5.856   0.000   5.856   0.000   0.000  13.381
 Approx polarizability:   5.709   0.000   5.709   0.000   0.000  15.006
 No NMR shielding tensors so no spin-rotation constants.
 Leave Link  601 at Fri Apr 15 17:24:35 2016, MaxMem=   104857600 cpu:         0.1
 (Enter /home/projets/algogen/g09.D01/g09/l701.exe)
 Compute integral second derivatives.
 ... and contract with generalized density number  0.
 Leave Link  701 at Fri Apr 15 17:24:35 2016, MaxMem=   104857600 cpu:         0.2
 (Enter /home/projets/algogen/g09.D01/g09/l702.exe)
 L702 exits ... SP integral derivatives will be done elsewhere.
 Leave Link  702 at Fri Apr 15 17:24:35 2016, MaxMem=   104857600 cpu:         0.0
 (Enter /home/projets/algogen/g09.D01/g09/l703.exe)
 Compute integral second derivatives, UseDBF=F ICtDFT=           0.
 Integral derivatives from FoFJK, PRISM(SPDF).
 Calling FoFJK, ICntrl=    100127 FMM=F ISym2X=1 I1Cent= 0 IOpClX= 0 NMat=1 NMatS=1 NMatT=0.
 FoFJK:  IHMeth= 1 ICntrl=  100127 DoSepK=F KAlg= 0 I1Cent=   0 FoldK=F
 IRaf=         0 NMat=   1 IRICut=       1 DoRegI=T DoRafI=F ISym2E= 1.
 FoFCou: FMM=F IPFlag=           0 FMFlag=      100000 FMFlg1=         800
         NFxFlg=           0 DoJE=F BraDBF=F KetDBF=F FulRan=T
         wScrn=  0.000000 ICntrl=  100127 IOpCl=  0 I1Cent=           0 NGrid=           0
         NMat0=    1 NMatS0=      1 NMatT0=    0 NMatD0=    1 NMtDS0=    0 NMtDT0=    0
 Petite list used in FoFCou.
 Leave Link  703 at Fri Apr 15 17:24:35 2016, MaxMem=   104857600 cpu:         0.3
 (Enter /home/projets/algogen/g09.D01/g09/l716.exe)
 Dipole        =-1.47911420D-30-3.45126646D-31 4.90406327D-15
 Polarizability= 5.85594773D+00 8.17053018D-32 5.85594773D+00
                -1.59641258D-16-3.55078376D-17 1.33808904D+01
 HyperPolar    = 4.48432672D-16 1.35511256D-16 1.49477557D-16
                 4.06533767D-16 1.74527357D-14 4.90148561D-31
                 1.40446435D-14 4.77430444D-16 4.32822159D-16
                -2.17919695D-14
 Full mass-weighted force constant matrix:
 Low frequencies ---   -0.0017   -0.0014    0.0008   19.7011   19.7011 2757.4902
 Diagonal vibrational polarizability:
        0.0000000       0.0000000       0.0000000
 Diagonal vibrational hyperpolarizability:
        0.0000000       0.0000000       0.0000000
 Harmonic frequencies (cm**-1), IR intensities (KM/Mole), Raman scattering
 activities (A**4/AMU), depolarization ratios for plane and unpolarized
 incident light, reduced masses (AMU), force constants (mDyne/A),
 and normal coordinates:
                      1
                     SGG
 Frequencies --   2757.4902
 Red. masses --     14.0031
 Frc consts  --     62.7338
 IR Inten    --      0.0000
 Raman Activ --     18.3077
 Depolar (P) --      0.2665
 Depolar (U) --      0.4209
  Atom  AN      X      Y      Z
     1   7     0.00   0.00   0.71
     2   7     0.00   0.00  -0.71

 -------------------
 - Thermochemistry -
 -------------------
 Temperature   298.150 Kelvin.  Pressure   1.00000 Atm.
 Atom     1 has atomic number  7 and mass  14.00307
 Atom     2 has atomic number  7 and mass  14.00307
 Molecular mass:    28.00615 amu.
 Principal axes and moments of inertia in atomic units:
                           1         2         3
     Eigenvalues --     0.00000  29.07863  29.07863
           X            0.00000   0.97615  -0.21712
           Y            0.00000   0.21712   0.97615
           Z            1.00000   0.00000   0.00000
 This molecule is a prolate symmetric top.
 Rotational symmetry number  2.
 Rotational temperature (Kelvin)      2.97861
 Rotational constant (GHZ):          62.064169
 Zero-point vibrational energy      16493.5 (Joules/Mol)
                                    3.94203 (Kcal/Mol)
 Vibrational temperatures:   3967.41
          (Kelvin)
 
 Zero-point correction=                           0.006282 (Hartree/Particle)
 Thermal correction to Energy=                    0.008643
 Thermal correction to Enthalpy=                  0.009587
 Thermal correction to Gibbs Free Energy=        -0.012121
 Sum of electronic and zero-point Energies=           -108.937667
 Sum of electronic and thermal Energies=              -108.935307
 Sum of electronic and thermal Enthalpies=            -108.934363
 Sum of electronic and thermal Free Energies=         -108.956070
 
                     E (Thermal)             CV                S
                      KCal/Mol        Cal/Mol-Kelvin    Cal/Mol-Kelvin
 Total                    5.423              4.969             45.687
 Electronic               0.000              0.000              0.000
 Translational            0.889              2.981             35.924
 Rotational               0.592              1.987              9.763
 Vibrational              3.942              0.001              0.000
                       Q            Log10(Q)             Ln(Q)
 Total Bot       0.376013D+06          5.575203         12.837379
 Total V=0       0.291560D+09          8.464728         19.490756
 Vib (Bot)       0.128966D-02         -2.889524         -6.653375
 Vib (V=0)       0.100000D+01          0.000001          0.000002
 Electronic      0.100000D+01          0.000000          0.000000
 Translational   0.582553D+07          6.765335         15.577760
 Rotational      0.500486D+02          1.699392          3.912994
 ***** Axes restored to original set *****
 -------------------------------------------------------------------
 Center     Atomic                   Forces (Hartrees/Bohr)
 Number     Number              X              Y              Z
 -------------------------------------------------------------------
      1        7           0.000000000    0.000205515    0.000041103
      2        7           0.000000000   -0.000205515   -0.000041103
 -------------------------------------------------------------------
 Cartesian Forces:  Max     0.000205515 RMS     0.000121004
 Force constants in Cartesian coordinates: 
                1             2             3             4             5 
      1  0.102841D-03
      2  0.000000D+00  0.193723D+01
      3  0.000000D+00  0.387425D+00  0.775878D-01
      4 -0.102841D-03  0.000000D+00  0.000000D+00  0.102841D-03
      5  0.000000D+00 -0.193723D+01 -0.387425D+00  0.000000D+00  0.193723D+01
      6  0.000000D+00 -0.387425D+00 -0.775878D-01  0.000000D+00  0.387425D+00
                6 
      6  0.775878D-01
 FormGI is forming the generalized inverse of G from B-inverse, IUseBI=4.
 Force constants in internal coordinates: 
                1 
      1  0.201471D+01
 Leave Link  716 at Fri Apr 15 17:24:35 2016, MaxMem=   104857600 cpu:         0.0
 (Enter /home/projets/algogen/g09.D01/g09/l103.exe)

 GradGradGradGradGradGradGradGradGradGradGradGradGradGradGradGradGradGrad
 Berny optimization.
 Red2BG is reusing G-inverse.
 Internal  Forces:  Max     0.000209585 RMS     0.000209585
 Search for a local minimum.
 Step number   1 out of a maximum of    2
 All quantities printed in internal units (Hartrees-Bohrs-Radians)
 Second derivative matrix not updated -- analytic derivatives used.
 The second derivative matrix:
                          R1
           R1           2.01471
 ITU=  0
     Eigenvalues ---    2.01471
 Angle between quadratic step and forces=   0.00 degrees.
 Linear search not attempted -- first point.
 Iteration  1 RMS(Cart)=  0.00007356 RMS(Int)=  0.00000000
 Iteration  2 RMS(Cart)=  0.00000000 RMS(Int)=  0.00000000
 ITry= 1 IFail=0 DXMaxC= 5.10D-05 DCOld= 1.00D+10 DXMaxT= 3.00D-01 DXLimC= 3.00D+00 Rises=F
 ClnCor:  largest displacement from symmetrization is 2.28D-16 for atom     1.
 Variable       Old X    -DE/DX   Delta X   Delta X   Delta X     New X
                                 (Linear)    (Quad)   (Total)
    R1        2.03793  -0.00021   0.00000  -0.00010  -0.00010   2.03783
         Item               Value     Threshold  Converged?
 Maximum Force            0.000210     0.000450     YES
 RMS     Force            0.000210     0.000300     YES
 Maximum Displacement     0.000051     0.001800     YES
 RMS     Displacement     0.000074     0.001200     YES
 Predicted change in Energy=-1.090125D-08
 Optimization completed.
    -- Stationary point found.
                           ----------------------------
                           !   Optimized Parameters   !
                           ! (Angstroms and Degrees)  !
 --------------------------                            --------------------------
 ! Name  Definition              Value          Derivative Info.                !
 --------------------------------------------------------------------------------
 ! R1    R(1,2)                  1.0784         -DE/DX =   -0.0002              !
 --------------------------------------------------------------------------------
 GradGradGradGradGradGradGradGradGradGradGradGradGradGradGradGradGradGrad

 Leave Link  103 at Fri Apr 15 17:24:35 2016, MaxMem=   104857600 cpu:         0.0
 (Enter /home/projets/algogen/g09.D01/g09/l9999.exe)

 Test job not archived.
 1\1\GINC-ROMEO174\Freq\RHF\6-31G(d)\N2\ROOT\15-Apr-2016\0\\#P Geom=All
 Check Guess=TCheck SCRF=Check Test GenChk RHF/6-31G(d) Freq\\equilibri
 um job\\0,1\N,0.,0.9712568365,-0.0057486327\N,0.,2.0287431635,0.205748
 6327\\Version=ES64L-G09RevD.01\State=1-SGG\HF=-108.9439495\RMSD=0.000e
 +00\RMSF=1.210e-04\ZeroPoint=0.006282\Thermal=0.0086425\Dipole=0.,0.,0
 .\DipoleDeriv=0.,0.,0.,0.,0.,0.,0.,0.,0.,0.,0.,0.,0.,0.,0.,0.,0.,0.\Po
 lar=5.8559477,0.,13.0914695,0.,1.4471044,6.1453686\PolarDeriv=0.,-3.62
 07307,0.,-0.7241461,0.,0.,-0.716248,0.,-11.0911523,0.,-1.3508347,-0.84
 15858,-0.1432496,0.,-0.7699382,0.,-3.7460684,-1.6166094,0.,3.6207307,0
 .,0.7241461,0.,0.,0.716248,0.,11.0911523,0.,1.3508347,0.8415858,0.1432
 496,0.,0.7699382,0.,3.7460684,1.6166094\HyperPolar=0.,0.,0.,0.,0.,0.,0
 .,0.,0.,0.\PG=D*H [C*(N1.N1)]\NImag=0\\0.00010284,0.,1.93722625,0.,0.3
 8742468,0.07758778,-0.00010284,0.,0.,0.00010284,0.,-1.93722625,-0.3874
 2468,0.,1.93722625,0.,-0.38742468,-0.07758778,0.,0.38742468,0.07758778
 \\0.,-0.00020551,-0.00004110,0.,0.00020551,0.00004110\\\@


 The most important thing in communication is to hear what isn't being said.
 -- Peter F. Drucker
 Job cpu time:       0 days  0 hours  0 minutes  1.9 seconds.
 File lengths (MBytes):  RWF=      5 Int=      0 D2E=      0 Chk=      1 Scr=      1
 Normal termination of Gaussian 09 at Fri Apr 15 17:24:35 2016.
************
total 136
drwxrwxr-x 2 henon henon   4096 15 avril 17:24 .
drwxrwxr-x 3 henon henon   4096 15 avril 17:24 ..
-rw-rw-r-- 1 henon henon    196 15 avril 17:24 n2.inp
-rw-rw-r-- 1 henon henon 126832 15 avril 17:24 n2.out
Run on 1 cores
romeo174
************
