
 Primary working directories    : /scratch_p/cours/73219
 Secondary working directories  : /scratch_p/cours/73219
 Wavefunction directory         : /home/cours/wfu/
 Main file repository           : /scratch_p/cours/73219/

 SHA1      : c1281485f5ab15cf3ef7a6651587cbc70f616fdb
 NAME      : 2015.1.34
 ARCHNAME  : linux/x86_64
 FC        : /apps/intel/2018.3//compilers_and_libraries_2018.3.222/linux/mpi/intel64/bin/mpiifort
 BLASLIB   : -L/apps/intel/2018.3/mkl/lib/intel64 -lmkl_intel_ilp64 -lmkl_intel_thread -lmkl_core
 id        : vlad

 Nodes             nprocs
 romeo111.ro18.urca    1

 Using customized tuning parameters: mindgm=1; mindgv=20; mindgc=4; mindgr=1; noblas=0; minvec=7
 default implementation of scratch files=df  

 ***,optimisation
 memory,100,m;
 GPRINT,orbitals,civector,basis
 nosym
 
 hc2   =      1.081704 ang
 hc3   =      1.081704 ang
 hch3  =      109.471 deg
 hc4   =      1.081704 ang
 hch4  =      109.471 deg
 dih4  =     -120.000 deg
 hc5   =      1.081704 ang
 hch5  =      109.471 deg
 dih5  =      120.000 deg
 
 
 geometry={
  c
  h   1 hc2
  h    1 hc3         2 hch3
  h    1 hc4         3 hch4          2 dih4
  h    1 hc5         4 hch5          3 dih5
 }
 
 basis=cc-pVTZ;
 endbasis;
 wf,10,1,0;
 hf;
 {optg,root=1,savexyz=ch4molpro3.xyz;}
 frequencies;
 thermo
 put,molden,ch4molpro3.molden;

 Variables initialized (889), CPU time= 0.01 sec
 Commands  initialized (702), CPU time= 0.00 sec, 572 directives.
 Default parameters read. Elapsed time= 0.05 sec

 Checking input...
 Passed
1


                                         ***  PROGRAM SYSTEM MOLPRO  ***
                                       Copyright, TTI GmbH Stuttgart, 2015
                                    Version 2015.1 linked Aug  2 2018 18:31:50


 **********************************************************************************************************************************
 LABEL *   optimisation                                                                  
  64 bit serial version                                                                  DATE: 23-Sep-19          TIME: 14:17:29  
 **********************************************************************************************************************************

 SHA1:             c1281485f5ab15cf3ef7a6651587cbc70f616fdb
 **********************************************************************************************************************************


 Variable memory set to  100000000 words,  buffer space   230000 words

 SETTING HC2            =         1.08170400  ANG                             
 SETTING HC3            =         1.08170400  ANG                             
 SETTING HCH3           =       109.47100000  DEG                             
 SETTING HC4            =         1.08170400  ANG                             
 SETTING HCH4           =       109.47100000  DEG                             
 SETTING DIH4           =      -120.00000000  DEG                             
 SETTING HC5            =         1.08170400  ANG                             
 SETTING HCH5           =       109.47100000  DEG                             
 SETTING DIH5           =       120.00000000  DEG                             
 ZSYMEL=NOSYM
 
 SETTING BASIS          =    CC-PVTZ


 Recomputing integrals since basis changed


 Using spherical harmonics

 Library entry C      S cc-pVTZ              selected for orbital group  1
 Library entry C      P cc-pVTZ              selected for orbital group  1
 Library entry C      D cc-pVTZ              selected for orbital group  1
 Library entry C      F cc-pVTZ              selected for orbital group  1
 Library entry H      S cc-pVTZ              selected for orbital group  2
 Library entry H      P cc-pVTZ              selected for orbital group  2
 Library entry H      D cc-pVTZ              selected for orbital group  2


 PROGRAM * SEWARD (Integral evaluation for generally contracted gaussian basis sets)     Author: Roland Lindh, 1990

 Geometry written to block  1 of record 700

 Orientation using atomic masses  
 Molecule type: Asymmetric top
 Rotational constants:     160.6924910    160.6934694    160.6929802 GHz  (calculated with average atomic masses)

 Point group  C1  



 ATOMIC COORDINATES

 NR  ATOM    CHARGE       X              Y              Z

   1  C       6.00    0.000000000   -0.000000000   -0.000000808
   2  H       1.00   -0.877451790    1.419758922   -1.180173313
   3  H       1.00    1.419750278    0.877457133    1.180178125
   4  H       1.00   -1.419750278   -0.877457133    1.180178125
   5  H       1.00    0.877451790   -1.419758923   -1.180173313

 Bond lengths in Bohr (Angstrom)

 1-2  2.044124308  1-3  2.044124308  1-4  2.044124308  1-5  2.044124308
     ( 1.081704000)     ( 1.081704000)     ( 1.081704000)     ( 1.081704000)

 Bond angles

  2-1-3  109.47100000   2-1-4  109.47144127   2-1-5  109.47144127   3-1-4  109.47100000

  3-1-5  109.47144127   4-1-5  109.47100000


 BASIS DATA

   Nr Sym  Nuc  Type         Exponents   Contraction coefficients

    1.1 A     1  1s        8236.000000     0.000531   -0.000113    0.000000    0.000000
    2.1 A                  1235.000000     0.004108   -0.000878    0.000000    0.000000
    3.1 A                   280.800000     0.021087   -0.004540    0.000000    0.000000
    4.1 A                    79.270000     0.081853   -0.018133    0.000000    0.000000
                             25.590000     0.234817   -0.055760    0.000000    0.000000
                              8.997000     0.434401   -0.126895    0.000000    0.000000
                              3.319000     0.346129   -0.170352    0.000000    0.000000
                              0.905900     0.039378    0.140382    1.000000    0.000000
                              0.364300    -0.008983    0.598684    0.000000    0.000000
                              0.128500     0.002385    0.395389    0.000000    1.000000
    5.1 A     1  2px         18.710000     0.014031
                              4.133000     0.086866
                              1.200000     0.290216
                              0.382700     0.501008
                              0.120900     0.343406
    6.1 A     1  2py         18.710000     0.014031
                              4.133000     0.086866
                              1.200000     0.290216
                              0.382700     0.501008
                              0.120900     0.343406
    7.1 A     1  2pz         18.710000     0.014031
                              4.133000     0.086866
                              1.200000     0.290216
                              0.382700     0.501008
                              0.120900     0.343406
    8.1 A     1  2px         18.710000     0.000000
                              4.133000     0.000000
                              1.200000     0.000000
                              0.382700     1.000000
                              0.120900     0.000000
    9.1 A     1  2py         18.710000     0.000000
                              4.133000     0.000000
                              1.200000     0.000000
                              0.382700     1.000000
                              0.120900     0.000000
   10.1 A     1  2pz         18.710000     0.000000
                              4.133000     0.000000
                              1.200000     0.000000
                              0.382700     1.000000
                              0.120900     0.000000
   11.1 A     1  2px         18.710000     0.000000
                              4.133000     0.000000
                              1.200000     0.000000
                              0.382700     0.000000
                              0.120900     1.000000
   12.1 A     1  2py         18.710000     0.000000
                              4.133000     0.000000
                              1.200000     0.000000
                              0.382700     0.000000
                              0.120900     1.000000
   13.1 A     1  2pz         18.710000     0.000000
                              4.133000     0.000000
                              1.200000     0.000000
                              0.382700     0.000000
                              0.120900     1.000000
   14.1 A     1  3d0          1.097000     1.000000
   15.1 A     1  3d2-         1.097000     1.000000
   16.1 A     1  3d1+         1.097000     1.000000
   17.1 A     1  3d2+         1.097000     1.000000
   18.1 A     1  3d1-         1.097000     1.000000
   19.1 A     1  3d0          0.318000     1.000000
   20.1 A     1  3d2-         0.318000     1.000000
   21.1 A     1  3d1+         0.318000     1.000000
   22.1 A     1  3d2+         0.318000     1.000000
   23.1 A     1  3d1-         0.318000     1.000000
   24.1 A     1  4f1+         0.761000     1.000000
   25.1 A     1  4f1-         0.761000     1.000000
   26.1 A     1  4f0          0.761000     1.000000
   27.1 A     1  4f3+         0.761000     1.000000
   28.1 A     1  4f2-         0.761000     1.000000
   29.1 A     1  4f3-         0.761000     1.000000
   30.1 A     1  4f2+         0.761000     1.000000
   31.1 A     2  1s          33.870000     0.006068    0.000000    0.000000
   32.1 A                     5.095000     0.045308    0.000000    0.000000
   33.1 A                     1.159000     0.202822    0.000000    0.000000
                              0.325800     0.503903    1.000000    0.000000
                              0.102700     0.383421    0.000000    1.000000
   34.1 A     2  2px          1.407000     1.000000
   35.1 A     2  2py          1.407000     1.000000
   36.1 A     2  2pz          1.407000     1.000000
   37.1 A     2  2px          0.388000     1.000000
   38.1 A     2  2py          0.388000     1.000000
   39.1 A     2  2pz          0.388000     1.000000
   40.1 A     2  3d0          1.057000     1.000000
   41.1 A     2  3d2-         1.057000     1.000000
   42.1 A     2  3d1+         1.057000     1.000000
   43.1 A     2  3d2+         1.057000     1.000000
   44.1 A     2  3d1-         1.057000     1.000000
   45.1 A     3  1s          33.870000     0.006068    0.000000    0.000000
   46.1 A                     5.095000     0.045308    0.000000    0.000000
   47.1 A                     1.159000     0.202822    0.000000    0.000000
                              0.325800     0.503903    1.000000    0.000000
                              0.102700     0.383421    0.000000    1.000000
   48.1 A     3  2px          1.407000     1.000000
   49.1 A     3  2py          1.407000     1.000000
   50.1 A     3  2pz          1.407000     1.000000
   51.1 A     3  2px          0.388000     1.000000
   52.1 A     3  2py          0.388000     1.000000
   53.1 A     3  2pz          0.388000     1.000000
   54.1 A     3  3d0          1.057000     1.000000
   55.1 A     3  3d2-         1.057000     1.000000
   56.1 A     3  3d1+         1.057000     1.000000
   57.1 A     3  3d2+         1.057000     1.000000
   58.1 A     3  3d1-         1.057000     1.000000
   59.1 A     4  1s          33.870000     0.006068    0.000000    0.000000
   60.1 A                     5.095000     0.045308    0.000000    0.000000
   61.1 A                     1.159000     0.202822    0.000000    0.000000
                              0.325800     0.503903    1.000000    0.000000
                              0.102700     0.383421    0.000000    1.000000
   62.1 A     4  2px          1.407000     1.000000
   63.1 A     4  2py          1.407000     1.000000
   64.1 A     4  2pz          1.407000     1.000000
   65.1 A     4  2px          0.388000     1.000000
   66.1 A     4  2py          0.388000     1.000000
   67.1 A     4  2pz          0.388000     1.000000
   68.1 A     4  3d0          1.057000     1.000000
   69.1 A     4  3d2-         1.057000     1.000000
   70.1 A     4  3d1+         1.057000     1.000000
   71.1 A     4  3d2+         1.057000     1.000000
   72.1 A     4  3d1-         1.057000     1.000000
   73.1 A     5  1s          33.870000     0.006068    0.000000    0.000000
   74.1 A                     5.095000     0.045308    0.000000    0.000000
   75.1 A                     1.159000     0.202822    0.000000    0.000000
                              0.325800     0.503903    1.000000    0.000000
                              0.102700     0.383421    0.000000    1.000000
   76.1 A     5  2px          1.407000     1.000000
   77.1 A     5  2py          1.407000     1.000000
   78.1 A     5  2pz          1.407000     1.000000
   79.1 A     5  2px          0.388000     1.000000
   80.1 A     5  2py          0.388000     1.000000
   81.1 A     5  2pz          0.388000     1.000000
   82.1 A     5  3d0          1.057000     1.000000
   83.1 A     5  3d2-         1.057000     1.000000
   84.1 A     5  3d1+         1.057000     1.000000
   85.1 A     5  3d2+         1.057000     1.000000
   86.1 A     5  3d1-         1.057000     1.000000

 NUCLEAR CHARGE:                   10
 NUMBER OF PRIMITIVE AOS:         115
 NUMBER OF SYMMETRY AOS:          106
 NUMBER OF CONTRACTIONS:           86   (  86A   )
 NUMBER OF CORE ORBITALS:           1   (   1A   )
 NUMBER OF VALENCE ORBITALS:        8   (   8A   )


 NUCLEAR REPULSION ENERGY   13.53843037


 Eigenvalues of metric

         1 0.124E-02 0.192E-02 0.192E-02 0.192E-02 0.387E-02 0.106E-01 0.106E-01 0.106E-01


 Contracted 2-electron integrals neglected if value below      1.0D-11
 AO integral compression algorithm  1   Integral accuracy      1.0D-11

     36.700 MB (compressed) written to integral file ( 55.3%)


 NUMBER OF SORTED TWO-ELECTRON INTEGRALS:    6999411.     BUFFER LENGTH:  32768
 NUMBER OF SEGMENTS:   1  SEGMENT LENGTH:    6999411      RECORD LENGTH: 524288

 Memory used in sort:       7.56 MW

 SORT1 READ     8325895. AND WROTE     6797810. INTEGRALS IN     20 RECORDS. CPU TIME:     0.08 SEC, REAL TIME:     0.17 SEC
 SORT2 READ     6797810. AND WROTE     6999411. INTEGRALS IN    140 RECORDS. CPU TIME:     0.12 SEC, REAL TIME:     0.24 SEC

 FILE SIZES:   FILE 1:    56.9 MBYTE,  FILE 4:    83.9 MBYTE,   TOTAL:    140.8 MBYTE

 OPERATOR DM      FOR CENTER  0  COORDINATES:    0.000000    0.000000    0.000000


 **********************************************************************************************************************************
 DATASETS  * FILE   NREC   LENGTH (MB)   RECORD NAMES
              1      19       51.55       500      610      700      900      950      970     1000      129      960     1100   
                                          VAR    BASINP    GEOM    SYMINP    ZMAT    AOBASIS   BASIS     P2S    ABASIS      S 
                                         1400     1410     1200     1210     1080     1600     1650     1300     1700   
                                           T        V       H0       H01     AOSYM     SMH    MOLCAS    ERIS     OPER   

 PROGRAMS   *        TOTAL       INT
 CPU TIMES  *         0.73      0.64
 REAL TIME  *         1.19 SEC
 DISK USED  *       141.16 MB      
 **********************************************************************************************************************************


 PROGRAM * RHF-SCF (CLOSED SHELL)       Authors: W. Meyer, H.-J. Werner


 NUMBER OF ELECTRONS:       5+    5-    SPACE SYMMETRY=1    SPIN SYMMETRY: Singlet 
 CONVERGENCE THRESHOLDS:    1.00E-06 (Density)    1.00E-07 (Energy)
 MAX. NUMBER OF ITERATIONS:       60
 INTERPOLATION TYPE:            DIIS
 INTERPOLATION STEPS:              2 (START)      1 (STEP)
 LEVEL SHIFTS:                  0.00 (CLOSED)  0.00 (OPEN) 



 Orbital guess generated from atomic densities. Full valence occupancy:    9

 Molecular orbital dump at record        2100.2

 Initial occupancy:   5

 ITERATION    DDIFF          GRAD             ENERGY        2-EL.EN.            DIPOLE MOMENTS         DIIS   ORB.
    1      0.000D+00      0.000D+00       -40.19450107     53.195178   -0.00000   -0.00000    0.00000    0    start
    2      0.000D+00      0.572D-02       -40.21099245     51.962230   -0.00000   -0.00000    0.00000    1    diag
    3      0.780D-02      0.223D-02       -40.21315361     52.402853   -0.00000   -0.00000    0.00000    2    diag
    4      0.223D-02      0.564D-03       -40.21346049     52.345553   -0.00000   -0.00000    0.00000    3    diag
    5      0.772D-03      0.721D-04       -40.21346540     52.347867   -0.00000   -0.00000    0.00000    4    diag
    6      0.177D-03      0.545D-05       -40.21346544     52.347943   -0.00000   -0.00000    0.00000    5    diag
    7      0.235D-04      0.360D-06       -40.21346544     52.347912   -0.00000   -0.00000    0.00000    6    diag
    8      0.152D-05      0.266D-07       -40.21346544     52.347912   -0.00000   -0.00000    0.00000    7    diag
    9      0.806D-07      0.203D-08       -40.21346544     52.347912   -0.00000   -0.00000    0.00000    0    orth

 Final occupancy:   5

 !RHF STATE 1.1 Energy                -40.213465436728
 Nuclear energy                        13.53843037
 One-electron energy                  -79.92585200
 Two-electron energy                   26.17395619
 Virial quotient                       -1.00041280
 !RHF STATE 1.1 Dipole moment          -0.00000000    -0.00000000     0.00000076
 Dipole moment /Debye                  -0.00000000    -0.00000000     0.00000192

 ELECTRON ORBITALS
 =================


   Orb  Occ    Energy  Couls-En    Coefficients

                                   1 1s      1 1s      1 1s      1 1s      1 2px     1 2py     1 2pz     1 2px     1 2py     1 2pz  
                                   1 2px     1 2py     1 2pz     1 3d0     1 3d2-    1 3d1+    1 3d2+    1 3d1-    1 3d0     1 3d2- 
                                   1 3d1+    1 3d2+    1 3d1-    1 4f1+    1 4f1-    1 4f0     1 4f3+    1 4f2-    1 4f3-    1 4f2+ 
                                   2 1s      2 1s      2 1s      2 2px     2 2py     2 2pz     2 2px     2 2py     2 2pz     2 3d0  
                                   2 3d2-    2 3d1+    2 3d2+    2 3d1-    3 1s      3 1s      3 1s      3 2px     3 2py     3 2pz  
                                   3 2px     3 2py     3 2pz     3 3d0     3 3d2-    3 3d1+    3 3d2+    3 3d1-    4 1s      4 1s   
                                   4 1s      4 2px     4 2py     4 2pz     4 2px     4 2py     4 2pz     4 3d0     4 3d2-    4 3d1+ 
                                   4 3d2+    4 3d1-    5 1s      5 1s      5 1s      5 2px     5 2py     5 2pz     5 2px     5 2py  
                                   5 2pz     5 3d0     5 3d2-    5 3d1+    5 3d2+    5 3d1- 

   1.1   2   -11.2031  -31.0910  0.999590  0.003298  0.001628  0.002383  0.000000 -0.000000  0.000000 -0.000000  0.000000  0.000000
                                -0.000000  0.000000  0.000000 -0.000000 -0.000000 -0.000000 -0.000000 -0.000000 -0.000000  0.000000
                                -0.000000  0.000000 -0.000000 -0.000000  0.000000  0.000000  0.000000  0.000837 -0.000000  0.000418
                                 0.000540 -0.000915 -0.000964 -0.000146  0.000237 -0.000197 -0.000130  0.000211 -0.000176  0.000000
                                 0.000135 -0.000112  0.000068  0.000182  0.000540 -0.000915 -0.000964  0.000237  0.000146  0.000197
                                 0.000211  0.000130  0.000176 -0.000000 -0.000135 -0.000182 -0.000068 -0.000112  0.000540 -0.000915
                                -0.000964 -0.000237 -0.000146  0.000197 -0.000211 -0.000130  0.000176 -0.000000 -0.000135  0.000182
                                -0.000068  0.000112  0.000540 -0.000915 -0.000964  0.000146 -0.000237 -0.000197  0.000130 -0.000211
                                -0.000176  0.000000  0.000135  0.000112  0.000068 -0.000182

   2.1   2    -0.9459   -6.4356 -0.015685  0.777712 -0.019562 -0.111564 -0.000000  0.000000  0.000001  0.000000 -0.000000  0.000000
                                 0.000000 -0.000000 -0.000000  0.000000  0.000000 -0.000000 -0.000000  0.000000 -0.000000  0.000000
                                -0.000000 -0.000000  0.000000  0.000000 -0.000000  0.000000 -0.000000  0.008406  0.000000  0.004203
                                 0.347184 -0.085678 -0.121242  0.003414 -0.005524  0.004592  0.000812 -0.001313  0.001092 -0.000000
                                -0.000553  0.000460 -0.000277 -0.000744  0.347184 -0.085678 -0.121242 -0.005524 -0.003414 -0.004592
                                -0.001313 -0.000812 -0.001092  0.000000  0.000553  0.000744  0.000277  0.000460  0.347184 -0.085678
                                -0.121242  0.005524  0.003414 -0.004592  0.001313  0.000812 -0.001092  0.000000  0.000553 -0.000744
                                 0.000277 -0.000460  0.347184 -0.085678 -0.121242 -0.003414  0.005524  0.004592 -0.000812  0.001313
                                 0.001092 -0.000000 -0.000553 -0.000460 -0.000277  0.000744

   3.1   2    -0.5467   -5.4084  0.000000  0.000000 -0.000000 -0.000000 -0.003259  0.663225 -0.000002  0.000230 -0.046879  0.000000
                                 0.000445 -0.090606  0.000000  0.000000 -0.000000  0.015986 -0.000000 -0.008092 -0.000000 -0.000000
                                 0.017961 -0.000000 -0.009091 -0.000001  0.000303  0.000000  0.000315  0.000000  0.000233  0.000000
                                 0.513185 -0.064571 -0.110758  0.005846 -0.004615  0.007895  0.008663 -0.003283  0.011724  0.000776
                                -0.001476  0.002025  0.000181 -0.002049  0.313688 -0.039470 -0.067702 -0.005829  0.001295 -0.004826
                                -0.008674  0.005492 -0.007166  0.000474  0.000076  0.002015  0.001541  0.000005 -0.313691  0.039470
                                 0.067702 -0.005829  0.001295  0.004826 -0.008674  0.005492  0.007166 -0.000474 -0.000076  0.002015
                                -0.001541  0.000005 -0.513183  0.064571  0.110758  0.005846 -0.004615 -0.007895  0.008663 -0.003283
                                -0.011724 -0.000776  0.001476  0.002025 -0.000181 -0.002049

   4.1   2    -0.5467   -5.4084 -0.000000 -0.000001  0.000000  0.000000  0.000003  0.000002  0.663233 -0.000000 -0.000000 -0.046880
                                -0.000000 -0.000000 -0.090607  0.000000  0.016026  0.000000  0.008013  0.000000  0.000000  0.018006
                                 0.000000  0.009003  0.000000  0.000000  0.000000 -0.000496 -0.000000 -0.000000  0.000000 -0.000000
                                -0.425299  0.053513  0.091790 -0.004864  0.007871 -0.001660 -0.007224  0.011688  0.001105  0.001286
                                 0.002025 -0.000763  0.001012  0.001235  0.425303 -0.053513 -0.091791 -0.007871 -0.004865 -0.001660
                                -0.011688 -0.007224  0.001105 -0.001286  0.002025  0.001235  0.001012  0.000764  0.425296 -0.053512
                                -0.091789  0.007871  0.004865 -0.001660  0.011688  0.007224  0.001105 -0.001286  0.002025 -0.001235
                                 0.001012 -0.000764 -0.425299  0.053513  0.091790  0.004865 -0.007871 -0.001660  0.007224 -0.011688
                                 0.001105  0.001286  0.002025  0.000764  0.001012 -0.001235

   5.1   2    -0.5467   -5.4084 -0.000000 -0.000000  0.000000 -0.000000  0.663225  0.003259 -0.000003 -0.046879 -0.000230  0.000000
                                -0.090605 -0.000445  0.000000  0.000000 -0.000000  0.008092 -0.000000  0.015986 -0.000000 -0.000000
                                 0.009091 -0.000000  0.017961  0.000303  0.000001  0.000000 -0.000234 -0.000000  0.000315  0.000000
                                -0.313687  0.039469  0.067701  0.001295  0.005829 -0.004826  0.005493  0.008674 -0.007166 -0.000474
                                 0.000076 -0.000005  0.001541  0.002015  0.513181 -0.064570 -0.110757 -0.004615 -0.005846 -0.007895
                                -0.003283 -0.008663 -0.011724  0.000776  0.001476  0.002049 -0.000181  0.002025 -0.513186  0.064571
                                 0.110757 -0.004615 -0.005846  0.007895 -0.003283 -0.008663  0.011724 -0.000776 -0.001476  0.002049
                                 0.000181  0.002025  0.313691 -0.039470 -0.067702  0.001295  0.005829  0.004826  0.005492  0.008674
                                 0.007166  0.000474 -0.000076 -0.000005 -0.001541  0.002015

 HOMO      5.1    -0.546670 =     -14.8757eV
 LUMO      6.1     0.143944 =       3.9169eV
 LUMO-HOMO         0.690614 =      18.7926eV


 **********************************************************************************************************************************
 DATASETS  * FILE   NREC   LENGTH (MB)   RECORD NAMES
              1      19       51.55       500      610      700      900      950      970     1000      129      960     1100   
                                          VAR    BASINP    GEOM    SYMINP    ZMAT    AOBASIS   BASIS     P2S    ABASIS      S 
                                         1400     1410     1200     1210     1080     1600     1650     1300     1700   
                                           T        V       H0       H01     AOSYM     SMH    MOLCAS    ERIS     OPER   

              2       4        2.96       700     1000      520     2100   
                                         GEOM     BASIS   MCVARS     RHF  

 PROGRAMS   *        TOTAL        HF       INT
 CPU TIMES  *         1.31      0.58      0.64
 REAL TIME  *         1.87 SEC
 DISK USED  *       141.16 MB      
 **********************************************************************************************************************************


 PROGRAM * OPT (Geometry optimization)     Authors: F. Eckert and H.-J. Werner


 BFGS update of hessian

 *** Long output written to logfile /scratch_p/cours/73219/molpro.log ***


 Geometry optimization using default procedure for command HF-SCF

 Geometry written to block  1 of record 700

 XYZ inputs for each point on the optimization path will be saved in files ch4molpro3_xx.xyz

 Making model hessian for Z-matrix coordinates

 Entering Rational Function Geometry Optimization

 ITER.   ENERGY(OLD)    ENERGY(NEW)      DE          GRADMAX     GRADNORM    GRADRMS     STEPMAX     STEPLEN     STEPRMS   CPU-time
   1   -40.21346544   -40.21346590    -0.00000046  0.00030320  0.00060626  0.00020209  0.00061440  0.00122853  0.00013650      2.32
   2   -40.21346590   -40.21346592    -0.00000003  0.00007073  0.00014135  0.00004712  0.00018691  0.00037351  0.00004150      4.65

 END OF GEOMETRY OPTIMIZATION.

 Optimized variables
 HC2=                 1.08212788 ANG
 HC3=                 1.08212787 ANG
 HCH3=              109.47119811 DEG
 HC4=                 1.08212787 ANG
 HCH4=              109.47121273 DEG
 DIH4=             -120.00000910 DEG
 HC5=                 1.08212788 ANG
 HCH5=              109.47119855 DEG
 DIH5=              120.00000832 DEG

 **********************************************************************************************************************************

 Current geometry (xyz format, in Angstrom)


 Dump information in style XYZ to ch4molpro3.xyz                                                                  

    5
 HF-SCF000/CC-PVTZ  ENERGY=-40.21346592
 C         -0.0000000010       -0.0000000002       -0.0000000150
 H         -0.5668069668        0.6863301772       -0.6153710373
 H          0.6844272028        0.5576118797        0.6258027685
 H         -0.6771568807       -0.5687772625        0.6236599211
 H          0.5595366561       -0.6751647919       -0.6340914734

 **********************************************************************************************************************************

 Geometry written to block  1 of record 700


 **********************************************************************************************************************************
 DATASETS  * FILE   NREC   LENGTH (MB)   RECORD NAMES
              1      19       51.94       500      610      700      900      950      970     1000      129      960     1100   
                                          VAR    BASINP    GEOM    SYMINP    ZMAT    AOBASIS   BASIS     P2S    ABASIS      S 
                                         1400     1410     1200     1210     1080     1600     1650     1300     1700   
                                           T        V       H0       H01     AOSYM     SMH    MOLCAS    ERIS     OPER   

              2       4        2.96       700     1000      520     2100   
                                         GEOM     BASIS   MCVARS     RHF  

 PROGRAMS   *        TOTAL      OPTG        HF       INT
 CPU TIMES  *         5.96      4.65      0.58      0.64
 REAL TIME  *         7.63 SEC
 DISK USED  *       144.35 MB      
 **********************************************************************************************************************************


 PROGRAM * HESSIAN

 Computing numerical hessian using default procedure for command HF-SCF

 Using no symmetry in wavefunction calculations

 Running default procedure: HF-SCF000
 

 Numerically approximating hessian using central gradient differences

 Task list generated. Total number of displacements:     30

    5 tasks completed, CPU=13s Elapsed=14s
   10 tasks completed, CPU=28s Elapsed=29s
   15 tasks completed, CPU=42s Elapsed=44s
   20 tasks completed, CPU=56s Elapsed=59s
   25 tasks completed, CPU=1m 10s Elapsed=1m 14s
   30 tasks completed, CPU=1m 24s Elapsed=1m 28s

 Numerical HF-SCF000 hessian completed. CPU-time:    84.15 sec, Elapsed:    88.98 sec

 HF-SCF hessian saved to record  5300.2

 PROGRAM * FREQUENCIES (Calculation of harmonuc vibrational spectra for HF-SCF)


 Permanent Dipole Moment [debye]
   1-  3    0.000000    0.000000    0.000000

 Dipole Moment Norm    0.0000001 [debye]

 Dipole Moment Derivatives [debye/ang]
                   1             2             3             4             5             6             7             8
         1     0.3703229     0.0000079     0.0000005    -0.0263520     0.3729814    -0.3344196    -0.1674750    -0.3659154
         2    -0.0000082     0.3703228    -0.0000008     0.3729831    -0.1699754     0.4049387    -0.3659130    -0.0164387
         3    -0.0000005     0.0000008     0.3703244    -0.3344196     0.4049395    -0.0813973    -0.4106622    -0.3345720
                   9            10            11            12            13            14            15
         1    -0.4106618    -0.1579837    -0.3692775     0.4049081    -0.0185006     0.3622075     0.3401728
         2    -0.3345711    -0.3692752    -0.0284969     0.3401021     0.3622091    -0.1554002    -0.4104691
         3    -0.0938113     0.4049090     0.3401023    -0.0912443     0.3401734    -0.4104705    -0.1038238

 Projecting out rotations and translations

   Low Vibration      Wavenumber
        Nr             [1/cm] 
        1                0.00
        2                0.00
        3                0.00
        4                0.00
        5                0.00
        6                0.00

     Vibration        Wavenumber
        Nr             [1/cm] 
        1             1453.73
        2             1453.73
        3             1453.73
        4             1666.16
        5             1666.16
        6             3147.57
        7             3245.81
        8             3245.81
        9             3245.81

 FREQUENCIES * CALCULATION OF NORMAL MODES FOR HF-SCF


 Atomic Coordinates

  Nr  Atom  Charge       X              Y              Z

   1   C     6.00   -0.000000002   -0.000000000   -0.000000028
   2   H     1.00   -1.071109933    1.296976066   -1.162882725
   3   H     1.00    1.293379966    1.053733736    1.182595840
   4   H     1.00   -1.279641048   -1.074833252    1.178546446
   5   H     1.00    1.057371037   -1.275876546   -1.198259223

 Frequencies dumped to record   5400.2

 Gradient norm at reference geometry: 0.26711D-03

 Normal Modes

                              1 A         2 A         3 A         4 A         5 A  
 Wavenumbers [cm-1]         1453.73     1453.73     1453.73     1666.16     1666.16
 Intensities [km/mol]          9.37        9.37        9.37        0.00        0.00
 Intensities [relative]       23.70       23.70       23.70        0.00        0.00
           CX1              0.00221    -0.11452     0.00946     0.00000     0.00000
           CY1             -0.00028    -0.00946    -0.11454    -0.00000     0.00000
           CZ1              0.11491     0.00218    -0.00046    -0.00000     0.00001
           HX2              0.18422     0.40005     0.18031    -0.19017     0.37924
           HY2             -0.23469     0.23250     0.28057     0.21013     0.32263
           HZ2             -0.34448    -0.17794     0.24770     0.40953     0.01053
           HX3              0.22832     0.28578    -0.23395     0.22682    -0.31201
           HY3              0.19607    -0.17290     0.40102     0.17755     0.38815
           HZ3             -0.33759    -0.25601    -0.16981    -0.40627    -0.00460
           HX4             -0.23770     0.28219    -0.23443    -0.23156     0.31190
           HY4             -0.18926    -0.18270     0.39587    -0.17028    -0.38797
           HZ4             -0.34707     0.24000     0.17600    -0.40671    -0.01517
           HX5             -0.20119     0.39670     0.17536     0.19490    -0.37913
           HY5              0.23126     0.23589     0.28750    -0.21740    -0.32281
           HZ5             -0.34023     0.16797    -0.24836     0.40346     0.00918

                              6 A         7 A         8 A         9 A  
 Wavenumbers [cm-1]         3147.57     3245.81     3245.81     3245.81
 Intensities [km/mol]          0.00       39.53       39.53       39.53
 Intensities [relative]        0.00      100.00      100.00      100.00
           CX1              0.00000    -0.07513     0.02465    -0.03822
           CY1              0.00000    -0.01185    -0.08187    -0.02951
           CZ1              0.00000     0.04391     0.02009    -0.07336
           HX2             -0.26086     0.01884    -0.37669     0.20747
           HY2              0.31587    -0.04409     0.44536    -0.26690
           HZ2             -0.28321     0.04642    -0.41034     0.21865
           HX3              0.31499     0.15514     0.09563     0.48663
           HY3              0.25663     0.13661     0.05682     0.39680
           HZ3              0.28801     0.16515     0.08693     0.43700
           HX4             -0.31165     0.45427     0.23945    -0.02498
           HY4             -0.26177     0.39217     0.17989    -0.02044
           HZ4              0.28703    -0.42362    -0.21167     0.00054
           HX5              0.25752     0.26707    -0.25216    -0.21369
           HY5             -0.31073    -0.34348     0.29349     0.24220
           HZ5             -0.29183    -0.31119     0.29570     0.21802


 Normal Modes of low/zero frequencies

                                  1           2           3           4           5
 Wavenumbers [cm-1]            0.00        0.00        0.00        0.00        0.00
 Intensities [km/mol]          0.00        0.00        0.00        0.00        0.00
 Intensities [relative]        0.00        0.00        0.00        0.00        0.00
           CX1              0.24622     0.02183    -0.00404    -0.02633     0.02064
           CY1              0.02566    -0.00022     0.13655     0.15998    -0.01223
           CZ1             -0.00147     0.00962    -0.12280     0.14819     0.15409
           HX2              0.29015    -0.39854     0.10789     0.07759    -0.02691
           HY2              0.03003    -0.37084     0.23055     0.03613     0.22319
           HZ2             -0.03706    -0.01655    -0.12106    -0.08567     0.46045
           HX3              0.20012     0.06790     0.27656    -0.16837     0.35821
           HY3              0.02135     0.40951     0.00703     0.28907    -0.27651
           HZ3              0.05280    -0.40584    -0.31428     0.18851     0.02038
           HX4              0.20156     0.40934    -0.07765    -0.13533     0.09804
           HY4              0.01981    -0.00481     0.43446     0.24927     0.03749
           HZ4             -0.05529     0.42618     0.06897     0.11127     0.28346
           HX5              0.29306     0.00862    -0.32296     0.12077    -0.34678
           HY5              0.03147    -0.03472    -0.12583     0.06547    -0.03307
           HZ5              0.03369     0.03470    -0.12485     0.37864    -0.14794

                                  6
 Wavenumbers [cm-1]            0.00
 Intensities [km/mol]          0.00
 Intensities [relative]        0.00
           CX1             -0.00987
           CY1              0.13147
           CZ1             -0.03815
           HX2             -0.26628
           HY2              0.20499
           HZ2              0.28002
           HX3             -0.08801
           HY3              0.08586
           HZ3              0.08795
           HX4              0.21577
           HY4             -0.28086
           HZ4             -0.16919
           HX5              0.09904
           HY5              0.51589
           HZ5             -0.35136


 FREQUENCIES * CALCULATION OF THERMODYNAMICAL PROPERTIES

 Temperature   298.150 [K]  Pressure   1.00000 [atm]
 Atom  1: C         Mass  12.01100
 Atom  2: H         Mass   1.00794
 Atom  3: H         Mass   1.00794
 Atom  4: H         Mass   1.00794
 Atom  5: H         Mass   1.00794

 Molecular Mass:    16.04276 [a.u.]
 Moments of Inertia          11.23979    11.23980    11.23979 [a.u.]
 Point Group C1    Order of principal axis 1
 Rotational Symmetry factor  1.0
 Rotational Temperatures      7.70585     7.70584     7.70585 [K]
 Rotational Constants       160.56469   160.56464   160.56473 [GHz]

 Vibrational Temperatures [K]   2091.58  2091.59  2091.59  2397.21  2397.22
                                4528.63  4669.97  4669.97  4669.97

 Zero-Point vibrational Energy      123.087 [kJ/Mol]
                                     29.418 [kcal/Mol]

 Electronic Energy at 0 [K]:                       -40.213466 [H]
 Electronic Energy + Zero-Point correction:        -40.166585 [H]
 Electronic Energy at     298.150 [K]:             -40.163729 [H]
 Enthalpy H at            298.150 [K]:             -40.162785 [H]
 Free Enthalpy G at       298.150 [K]:             -40.186225 [H]

 Partition Function  Z                 log10(Z)          ln(Z)
 Electronic      0.100000D+01          0.000000          0.000000
 Translation     0.252574D+07          6.402389         14.742046
 Rotation        0.426576D+03          2.629997          6.055791
 Vibration       0.100335D+01          0.001451          0.003341
 Total           0.108103D+10          9.033837         20.797837

                       H(T)-H(0)              Cv                 S
                       [kJ/Mol]          [J/Mol K]          [J/Mol K] 
 Electronic               0.000              0.000              0.000
 Translation              3.718             12.472            143.359
 Rotation                 3.718             12.472             62.823
 Vibration                0.060              1.453              0.228
 Volume (RT)              2.479              0.000              0.000
 Total                    9.976             26.396            206.410

 Thermal energies including ZPE:

 H(T)-E(0)              133.063 kJ/Mol
 U(T)-E(0)              130.584 kJ/Mol

                       H(T)-H(0)              Cv                 S
                       [kcal/Mol]        [cal/Mol K]        [cal/Mol K] 
 Electronic               0.000              0.000              0.000
 Translation              0.889              2.981             34.264
 Rotation                 0.889              2.981             15.015
 Vibration                0.014              0.347              0.055
 Volume (RT)              0.592              0.000              0.000
 Total                    2.384              6.309             49.333

 Thermal energies including ZPE:

 H(T)-E(0)               31.803 kcal/Mol
 U(T)-E(0)               31.210 kcal/Mol
 Frequency information read from record  5400.2

 Dump information in style MOLDEN to ch4molpro3.molden                                                               

 Molecular orbitals read from record     2100.2  Type=RHF/CANONICAL (state 1.1)
 Occupation numbers read from record     2100.2  Type=RHF/RHF (state 1.1)
 Orbital energies read from record       2100.2  Type=RHF/CANONICAL (state 1.1)
 Redundancy group numbers read from rec  2100.2  Type=RHF/RHF (state 1.1)
 
 DUMP ORBITAL  1.1 AS ORBITAL    1  occ=    2.0000  eig=  -11.2033  GROUP=   2
 DUMP ORBITAL  2.1 AS ORBITAL    2  occ=    2.0000  eig=   -0.9457  GROUP=   2
 DUMP ORBITAL  3.1 AS ORBITAL    3  occ=    2.0000  eig=   -0.5466  GROUP=   2
 DUMP ORBITAL  4.1 AS ORBITAL    4  occ=    2.0000  eig=   -0.5466  GROUP=   2
 DUMP ORBITAL  5.1 AS ORBITAL    5  occ=    2.0000  eig=   -0.5466  GROUP=   2

 Total charge:      10.000000
 Frequency information read from record  5400.2

 **********************************************************************************************************************************

 HF/cc-pVTZ energy=    -40.213465922550

        OPTG(HF)        HF-SCF  
    -40.21346592    -40.21346544
 **********************************************************************************************************************************
 Molpro calculation terminated
 Variable memory released
