
 Primary working directories    : /scratch_p/cours/73129
 Secondary working directories  : /scratch_p/cours/73129
 Wavefunction directory         : /home/cours/wfu/
 Main file repository           : /scratch_p/cours/73129/

 SHA1      : c1281485f5ab15cf3ef7a6651587cbc70f616fdb
 NAME      : 2015.1.34
 ARCHNAME  : linux/x86_64
 FC        : /apps/intel/2018.3//compilers_and_libraries_2018.3.222/linux/mpi/intel64/bin/mpiifort
 BLASLIB   : -L/apps/intel/2018.3/mkl/lib/intel64 -lmkl_intel_ilp64 -lmkl_intel_thread -lmkl_core
 id        : vlad

 Nodes             nprocs
 romeo111.ro18.urca    1

 Using customized tuning parameters: mindgm=1; mindgv=20; mindgc=4; mindgr=1; noblas=0; minvec=7
 default implementation of scratch files=df  

 ***,optimisation
 memory,100,m;
 GPRINT,orbitals,civector,basis
 nosym
 ANGSTROM
 orient,mass
 geomtyp=xyz
 geometry={
  7
 C         -0.015335    0.030493   -0.004770
 H         -0.223448    0.082937    1.269369
 H          0.999752    0.359895   -0.154404
 H         -0.184354   -0.994315   -0.292008
 H         -0.749787    0.712913   -0.400707
 O         -0.341927    0.063730    2.478330
 H          0.342177   -0.555166    2.693176
 }
 
 basis=cc-pVTZ;
 endbasis;
 wf,19,1,1;
 uhf;
 {optg,root=2,savexyz=tsmolpro.xyz;}
 frequencies,analytical;
 thermo
 put,molden,test.molden;

 Variables initialized (889), CPU time= 0.00 sec
 Commands  initialized (702), CPU time= 0.01 sec, 572 directives.
 Default parameters read. Elapsed time= 0.06 sec

 Checking input...
 Passed
1


                                         ***  PROGRAM SYSTEM MOLPRO  ***
                                       Copyright, TTI GmbH Stuttgart, 2015
                                    Version 2015.1 linked Aug  2 2018 18:31:50


 **********************************************************************************************************************************
 LABEL *   optimisation                                                                  
  64 bit serial version                                                                  DATE: 23-Sep-19          TIME: 11:27:35  
 **********************************************************************************************************************************

 SHA1:             c1281485f5ab15cf3ef7a6651587cbc70f616fdb
 **********************************************************************************************************************************


 Variable memory set to  100000000 words,  buffer space   230000 words

 SETTING GEOMTYP        =    XYZ
 ZSYMEL=NOSYM
 ZCENTRE=MASS
 ZUNIT=ANG
 
 SETTING BASIS          =    CC-PVTZ


 Recomputing integrals since basis changed


 Using spherical harmonics

 Library entry C      S cc-pVTZ              selected for orbital group  1
 Library entry C      P cc-pVTZ              selected for orbital group  1
 Library entry C      D cc-pVTZ              selected for orbital group  1
 Library entry C      F cc-pVTZ              selected for orbital group  1
 Library entry H      S cc-pVTZ              selected for orbital group  2
 Library entry H      P cc-pVTZ              selected for orbital group  2
 Library entry H      D cc-pVTZ              selected for orbital group  2
 Library entry O      S cc-pVTZ              selected for orbital group  3
 Library entry O      P cc-pVTZ              selected for orbital group  3
 Library entry O      D cc-pVTZ              selected for orbital group  3
 Library entry O      F cc-pVTZ              selected for orbital group  3


 PROGRAM * SEWARD (Integral evaluation for generally contracted gaussian basis sets)     Author: Roland Lindh, 1990

 Geometry written to block  1 of record 700

 Orientation using atomic masses  
 Molecule type: Asymmetric top
 Rotational constants:       9.2736783      9.1341853    122.8733148 GHz  (calculated with average atomic masses)

 Point group  C1  



 ATOMIC COORDINATES

 NR  ATOM    CHARGE       X              Y              Z

   1  C       6.00    0.010191250    0.000000722   -2.468817112
   2  H       1.00   -0.151591418    0.000020381   -0.032490154
   3  H       1.00    1.008545140    1.703777737   -2.966313354
   4  H       1.00    1.005488749   -1.705554245   -2.966370018
   5  H       1.00   -1.938721969    0.001745631   -3.061179662
   6  O       8.00   -0.107610526    0.000001316    2.262925264
   7  H       1.00    1.662977853   -0.000019007    2.525485935

 Bond lengths in Bohr (Angstrom)

 1-2  2.441692584  1-3  2.036435394  1-4  2.036441443  1-5  2.036948495  2-6  2.295836724
     ( 1.292088072)     ( 1.077635202)     ( 1.077638403)     ( 1.077906724)     ( 1.214904474)

 6-7  1.789950087
     ( 0.947200795)

 Bond angles

  1-2-6  175.10321831   2-1-3  106.03573936   2-1-4  106.03222078   2-1-5  103.10727455

  2-6-7   99.53259671   3-1-4  113.66658876   3-1-5  113.40932077   4-1-5  113.40862647


 BASIS DATA

   Nr Sym  Nuc  Type         Exponents   Contraction coefficients

    1.1 A     1  1s        8236.000000     0.000531   -0.000113    0.000000    0.000000
    2.1 A                  1235.000000     0.004108   -0.000878    0.000000    0.000000
    3.1 A                   280.800000     0.021087   -0.004540    0.000000    0.000000
    4.1 A                    79.270000     0.081853   -0.018133    0.000000    0.000000
                             25.590000     0.234817   -0.055760    0.000000    0.000000
                              8.997000     0.434401   -0.126895    0.000000    0.000000
                              3.319000     0.346129   -0.170352    0.000000    0.000000
                              0.905900     0.039378    0.140382    1.000000    0.000000
                              0.364300    -0.008983    0.598684    0.000000    0.000000
                              0.128500     0.002385    0.395389    0.000000    1.000000
    5.1 A     1  2px         18.710000     0.014031
                              4.133000     0.086866
                              1.200000     0.290216
                              0.382700     0.501008
                              0.120900     0.343406
    6.1 A     1  2py         18.710000     0.014031
                              4.133000     0.086866
                              1.200000     0.290216
                              0.382700     0.501008
                              0.120900     0.343406
    7.1 A     1  2pz         18.710000     0.014031
                              4.133000     0.086866
                              1.200000     0.290216
                              0.382700     0.501008
                              0.120900     0.343406
    8.1 A     1  2px         18.710000     0.000000
                              4.133000     0.000000
                              1.200000     0.000000
                              0.382700     1.000000
                              0.120900     0.000000
    9.1 A     1  2py         18.710000     0.000000
                              4.133000     0.000000
                              1.200000     0.000000
                              0.382700     1.000000
                              0.120900     0.000000
   10.1 A     1  2pz         18.710000     0.000000
                              4.133000     0.000000
                              1.200000     0.000000
                              0.382700     1.000000
                              0.120900     0.000000
   11.1 A     1  2px         18.710000     0.000000
                              4.133000     0.000000
                              1.200000     0.000000
                              0.382700     0.000000
                              0.120900     1.000000
   12.1 A     1  2py         18.710000     0.000000
                              4.133000     0.000000
                              1.200000     0.000000
                              0.382700     0.000000
                              0.120900     1.000000
   13.1 A     1  2pz         18.710000     0.000000
                              4.133000     0.000000
                              1.200000     0.000000
                              0.382700     0.000000
                              0.120900     1.000000
   14.1 A     1  3d0          1.097000     1.000000
   15.1 A     1  3d2-         1.097000     1.000000
   16.1 A     1  3d1+         1.097000     1.000000
   17.1 A     1  3d2+         1.097000     1.000000
   18.1 A     1  3d1-         1.097000     1.000000
   19.1 A     1  3d0          0.318000     1.000000
   20.1 A     1  3d2-         0.318000     1.000000
   21.1 A     1  3d1+         0.318000     1.000000
   22.1 A     1  3d2+         0.318000     1.000000
   23.1 A     1  3d1-         0.318000     1.000000
   24.1 A     1  4f1+         0.761000     1.000000
   25.1 A     1  4f1-         0.761000     1.000000
   26.1 A     1  4f0          0.761000     1.000000
   27.1 A     1  4f3+         0.761000     1.000000
   28.1 A     1  4f2-         0.761000     1.000000
   29.1 A     1  4f3-         0.761000     1.000000
   30.1 A     1  4f2+         0.761000     1.000000
   31.1 A     2  1s          33.870000     0.006068    0.000000    0.000000
   32.1 A                     5.095000     0.045308    0.000000    0.000000
   33.1 A                     1.159000     0.202822    0.000000    0.000000
                              0.325800     0.503903    1.000000    0.000000
                              0.102700     0.383421    0.000000    1.000000
   34.1 A     2  2px          1.407000     1.000000
   35.1 A     2  2py          1.407000     1.000000
   36.1 A     2  2pz          1.407000     1.000000
   37.1 A     2  2px          0.388000     1.000000
   38.1 A     2  2py          0.388000     1.000000
   39.1 A     2  2pz          0.388000     1.000000
   40.1 A     2  3d0          1.057000     1.000000
   41.1 A     2  3d2-         1.057000     1.000000
   42.1 A     2  3d1+         1.057000     1.000000
   43.1 A     2  3d2+         1.057000     1.000000
   44.1 A     2  3d1-         1.057000     1.000000
   45.1 A     3  1s          33.870000     0.006068    0.000000    0.000000
   46.1 A                     5.095000     0.045308    0.000000    0.000000
   47.1 A                     1.159000     0.202822    0.000000    0.000000
                              0.325800     0.503903    1.000000    0.000000
                              0.102700     0.383421    0.000000    1.000000
   48.1 A     3  2px          1.407000     1.000000
   49.1 A     3  2py          1.407000     1.000000
   50.1 A     3  2pz          1.407000     1.000000
   51.1 A     3  2px          0.388000     1.000000
   52.1 A     3  2py          0.388000     1.000000
   53.1 A     3  2pz          0.388000     1.000000
   54.1 A     3  3d0          1.057000     1.000000
   55.1 A     3  3d2-         1.057000     1.000000
   56.1 A     3  3d1+         1.057000     1.000000
   57.1 A     3  3d2+         1.057000     1.000000
   58.1 A     3  3d1-         1.057000     1.000000
   59.1 A     4  1s          33.870000     0.006068    0.000000    0.000000
   60.1 A                     5.095000     0.045308    0.000000    0.000000
   61.1 A                     1.159000     0.202822    0.000000    0.000000
                              0.325800     0.503903    1.000000    0.000000
                              0.102700     0.383421    0.000000    1.000000
   62.1 A     4  2px          1.407000     1.000000
   63.1 A     4  2py          1.407000     1.000000
   64.1 A     4  2pz          1.407000     1.000000
   65.1 A     4  2px          0.388000     1.000000
   66.1 A     4  2py          0.388000     1.000000
   67.1 A     4  2pz          0.388000     1.000000
   68.1 A     4  3d0          1.057000     1.000000
   69.1 A     4  3d2-         1.057000     1.000000
   70.1 A     4  3d1+         1.057000     1.000000
   71.1 A     4  3d2+         1.057000     1.000000
   72.1 A     4  3d1-         1.057000     1.000000
   73.1 A     5  1s          33.870000     0.006068    0.000000    0.000000
   74.1 A                     5.095000     0.045308    0.000000    0.000000
   75.1 A                     1.159000     0.202822    0.000000    0.000000
                              0.325800     0.503903    1.000000    0.000000
                              0.102700     0.383421    0.000000    1.000000
   76.1 A     5  2px          1.407000     1.000000
   77.1 A     5  2py          1.407000     1.000000
   78.1 A     5  2pz          1.407000     1.000000
   79.1 A     5  2px          0.388000     1.000000
   80.1 A     5  2py          0.388000     1.000000
   81.1 A     5  2pz          0.388000     1.000000
   82.1 A     5  3d0          1.057000     1.000000
   83.1 A     5  3d2-         1.057000     1.000000
   84.1 A     5  3d1+         1.057000     1.000000
   85.1 A     5  3d2+         1.057000     1.000000
   86.1 A     5  3d1-         1.057000     1.000000
   87.1 A     6  1s       15330.000000     0.000508   -0.000115    0.000000    0.000000
   88.1 A                  2299.000000     0.003929   -0.000895    0.000000    0.000000
   89.1 A                   522.400000     0.020243   -0.004636    0.000000    0.000000
   90.1 A                   147.300000     0.079181   -0.018724    0.000000    0.000000
                             47.550000     0.230687   -0.058463    0.000000    0.000000
                             16.760000     0.433118   -0.136463    0.000000    0.000000
                              6.207000     0.350260   -0.175740    0.000000    0.000000
                              1.752000     0.042728    0.160934    1.000000    0.000000
                              0.688200    -0.008154    0.603418    0.000000    0.000000
                              0.238400     0.002381    0.378765    0.000000    1.000000
   91.1 A     6  2px         34.460000     0.015928
                              7.749000     0.099740
                              2.280000     0.310492
                              0.715600     0.491026
                              0.214000     0.336337
   92.1 A     6  2py         34.460000     0.015928
                              7.749000     0.099740
                              2.280000     0.310492
                              0.715600     0.491026
                              0.214000     0.336337
   93.1 A     6  2pz         34.460000     0.015928
                              7.749000     0.099740
                              2.280000     0.310492
                              0.715600     0.491026
                              0.214000     0.336337
   94.1 A     6  2px         34.460000     0.000000
                              7.749000     0.000000
                              2.280000     0.000000
                              0.715600     1.000000
                              0.214000     0.000000
   95.1 A     6  2py         34.460000     0.000000
                              7.749000     0.000000
                              2.280000     0.000000
                              0.715600     1.000000
                              0.214000     0.000000
   96.1 A     6  2pz         34.460000     0.000000
                              7.749000     0.000000
                              2.280000     0.000000
                              0.715600     1.000000
                              0.214000     0.000000
   97.1 A     6  2px         34.460000     0.000000
                              7.749000     0.000000
                              2.280000     0.000000
                              0.715600     0.000000
                              0.214000     1.000000
   98.1 A     6  2py         34.460000     0.000000
                              7.749000     0.000000
                              2.280000     0.000000
                              0.715600     0.000000
                              0.214000     1.000000
   99.1 A     6  2pz         34.460000     0.000000
                              7.749000     0.000000
                              2.280000     0.000000
                              0.715600     0.000000
                              0.214000     1.000000
  100.1 A     6  3d0          2.314000     1.000000
  101.1 A     6  3d2-         2.314000     1.000000
  102.1 A     6  3d1+         2.314000     1.000000
  103.1 A     6  3d2+         2.314000     1.000000
  104.1 A     6  3d1-         2.314000     1.000000
  105.1 A     6  3d0          0.645000     1.000000
  106.1 A     6  3d2-         0.645000     1.000000
  107.1 A     6  3d1+         0.645000     1.000000
  108.1 A     6  3d2+         0.645000     1.000000
  109.1 A     6  3d1-         0.645000     1.000000
  110.1 A     6  4f1+         1.428000     1.000000
  111.1 A     6  4f1-         1.428000     1.000000
  112.1 A     6  4f0          1.428000     1.000000
  113.1 A     6  4f3+         1.428000     1.000000
  114.1 A     6  4f2-         1.428000     1.000000
  115.1 A     6  4f3-         1.428000     1.000000
  116.1 A     6  4f2+         1.428000     1.000000
  117.1 A     7  1s          33.870000     0.006068    0.000000    0.000000
  118.1 A                     5.095000     0.045308    0.000000    0.000000
  119.1 A                     1.159000     0.202822    0.000000    0.000000
                              0.325800     0.503903    1.000000    0.000000
                              0.102700     0.383421    0.000000    1.000000
  120.1 A     7  2px          1.407000     1.000000
  121.1 A     7  2py          1.407000     1.000000
  122.1 A     7  2pz          1.407000     1.000000
  123.1 A     7  2px          0.388000     1.000000
  124.1 A     7  2py          0.388000     1.000000
  125.1 A     7  2pz          0.388000     1.000000
  126.1 A     7  3d0          1.057000     1.000000
  127.1 A     7  3d2-         1.057000     1.000000
  128.1 A     7  3d1+         1.057000     1.000000
  129.1 A     7  3d2+         1.057000     1.000000
  130.1 A     7  3d1-         1.057000     1.000000

 NUCLEAR CHARGE:                   19
 NUMBER OF PRIMITIVE AOS:         179
 NUMBER OF SYMMETRY AOS:          164
 NUMBER OF CONTRACTIONS:          130   ( 130A   )
 NUMBER OF CORE ORBITALS:           2   (   2A   )
 NUMBER OF VALENCE ORBITALS:       13   (  13A   )


 NUCLEAR REPULSION ENERGY   37.34089957


 Eigenvalues of metric

         1 0.127E-02 0.179E-02 0.187E-02 0.231E-02 0.305E-02 0.315E-02 0.549E-02 0.741E-02


 Contracted 2-electron integrals neglected if value below      1.0D-11
 AO integral compression algorithm  1   Integral accuracy      1.0D-11

     137.626 MB (compressed) written to integral file ( 41.4%)


 NUMBER OF SORTED TWO-ELECTRON INTEGRALS:   36256870.     BUFFER LENGTH:  32768
 NUMBER OF SEGMENTS:   3  SEGMENT LENGTH:   15998004      RECORD LENGTH: 524288

 Memory used in sort:      16.56 MW

 SORT1 READ    41631705. AND WROTE    32620530. INTEGRALS IN     95 RECORDS. CPU TIME:     0.41 SEC, REAL TIME:     0.85 SEC
 SORT2 READ    32620530. AND WROTE    36256870. INTEGRALS IN    525 RECORDS. CPU TIME:     0.58 SEC, REAL TIME:     0.94 SEC

 FILE SIZES:   FILE 1:   158.2 MBYTE,  FILE 4:   398.5 MBYTE,   TOTAL:    556.7 MBYTE

 OPERATOR DM      FOR CENTER  0  COORDINATES:    0.000000    0.000000    0.000000


 **********************************************************************************************************************************
 DATASETS  * FILE   NREC   LENGTH (MB)   RECORD NAMES
              1      19      139.54       500      610      700      900      950      970     1000      129      960     1100   
                                          VAR    BASINP    GEOM    SYMINP    ZMAT    AOBASIS   BASIS     P2S    ABASIS      S 
                                         1400     1410     1200     1210     1080     1600     1650     1300     1700   
                                           T        V       H0       H01     AOSYM     SMH    MOLCAS    ERIS     OPER   

 PROGRAMS   *        TOTAL       INT
 CPU TIMES  *         3.11      3.02
 REAL TIME  *         4.39 SEC
 DISK USED  *       557.13 MB      
 **********************************************************************************************************************************


 PROGRAM * UHF-SCF       Authors: W. Meyer, H.-J. Werner


 NUMBER OF ELECTRONS:      10+    9-    SPACE SYMMETRY=1    SPIN SYMMETRY: Doublet 
 CONVERGENCE THRESHOLDS:    1.00E-06 (Density)    1.00E-07 (Energy)
 MAX. NUMBER OF ITERATIONS:       60
 INTERPOLATION TYPE:            DIIS
 INTERPOLATION STEPS:              2 (START)      1 (STEP)
 LEVEL SHIFTS:                  0.20 (ALPHA)   0.20 (BETA) 



 Orbital guess generated from atomic densities. Full valence occupancy:   15

 Molecular orbital dump at record        2200.2

 Initial alpha occupation  10
 Initial beta  occupation   9

 ITERATION    DDIFF          GRAD             ENERGY        2-EL.EN.            DIPOLE MOMENTS         DIIS
    1      0.000D+00      0.000D+00      -115.52605290    158.926563    0.87179   -0.00001   -1.27964    0
    2      0.629D-02      0.263D-02      -115.57331121    156.760749    0.61122   -0.00001   -0.95293    1
    3      0.174D-02      0.102D-02      -115.58105668    157.277922    0.61060   -0.00001   -0.92767    2
    4      0.111D-02      0.525D-03      -115.58536929    157.228024    0.59056   -0.00001   -0.83751    3
    5      0.583D-03      0.244D-03      -115.58689383    157.213259    0.59114   -0.00001   -0.76309    4
    6      0.463D-03      0.134D-03      -115.58756868    157.171842    0.59363   -0.00001   -0.68612    5
    7      0.384D-03      0.804D-04      -115.58790135    157.149427    0.59598   -0.00001   -0.61335    6
    8      0.278D-03      0.443D-04      -115.58801615    157.132264    0.59701   -0.00001   -0.56151    7
    9      0.113D-03      0.180D-04      -115.58803349    157.127317    0.59723   -0.00001   -0.54295    8
   10      0.328D-04      0.861D-05      -115.58803628    157.126754    0.59693   -0.00001   -0.53954    8
   11      0.160D-04      0.377D-05      -115.58803684    157.125560    0.59670   -0.00001   -0.53758    9
   12      0.582D-05      0.150D-05      -115.58803691    157.125652    0.59663   -0.00001   -0.53707    9
   13      0.270D-05      0.495D-06      -115.58803692    157.125557    0.59662   -0.00001   -0.53687    9
   14      0.660D-06      0.174D-06      -115.58803692    157.125580    0.59662   -0.00001   -0.53680    8
   15      0.226D-06      0.805D-07      -115.58803692    157.125564    0.59662   -0.00001   -0.53680    8
   16      0.100D-06      0.406D-07      -115.58803692    157.125570    0.59661   -0.00001   -0.53679    8
 
 Final alpha occupancy:  10
 Final beta  occupancy:   9

 !UHF STATE 1.1 Energy               -115.588036916994
 Nuclear energy                        37.34089957
 One-electron energy                 -231.49172133
 Two-electron energy                   78.56278484
 Virial quotient                       -1.00017086
 !UHF STATE 1.1 Dipole moment           0.59661404    -0.00000601    -0.53679113
 Dipole moment /Debye                   1.51634230    -0.00001528    -1.36429760

 ELECTRON ORBITALS FOR POSITIVE SPIN
 ===================================


   Orb  Occ    Energy  Couls-En    Coefficients

                                   1 1s      1 1s      1 1s      1 1s      1 2px     1 2py     1 2pz     1 2px     1 2py     1 2pz  
                                   1 2px     1 2py     1 2pz     1 3d0     1 3d2-    1 3d1+    1 3d2+    1 3d1-    1 3d0     1 3d2- 
                                   1 3d1+    1 3d2+    1 3d1-    1 4f1+    1 4f1-    1 4f0     1 4f3+    1 4f2-    1 4f3-    1 4f2+ 
                                   2 1s      2 1s      2 1s      2 2px     2 2py     2 2pz     2 2px     2 2py     2 2pz     2 3d0  
                                   2 3d2-    2 3d1+    2 3d2+    2 3d1-    3 1s      3 1s      3 1s      3 2px     3 2py     3 2pz  
                                   3 2px     3 2py     3 2pz     3 3d0     3 3d2-    3 3d1+    3 3d2+    3 3d1-    4 1s      4 1s   
                                   4 1s      4 2px     4 2py     4 2pz     4 2px     4 2py     4 2pz     4 3d0     4 3d2-    4 3d1+ 
                                   4 3d2+    4 3d1-    5 1s      5 1s      5 1s      5 2px     5 2py     5 2pz     5 2px     5 2py  
                                   5 2pz     5 3d0     5 3d2-    5 3d1+    5 3d2+    5 3d1-    6 1s      6 1s      6 1s      6 1s   
                                   6 2px     6 2py     6 2pz     6 2px     6 2py     6 2pz     6 2px     6 2py     6 2pz     6 3d0  
                                   6 3d2-    6 3d1+    6 3d2+    6 3d1-    6 3d0     6 3d2-    6 3d1+    6 3d2+    6 3d1-    6 4f1+ 
                                   6 4f1-    6 4f0     6 4f3+    6 4f2-    6 4f3-    6 4f2+    7 1s      7 1s      7 1s      7 2px  
                                   7 2py     7 2pz     7 2px     7 2py     7 2pz     7 3d0     7 3d2-    7 3d1+    7 3d2+    7 3d1- 


   1.1   +   -20.5837  -55.3005  0.000040  0.000073 -0.000148  0.000888  0.000012  0.000000 -0.000349 -0.000060 -0.000000  0.001185
                                -0.000137  0.000000  0.000983  0.000038  0.000000  0.000010  0.000001 -0.000000  0.000576 -0.000000
                                -0.000087 -0.000010  0.000000  0.000007  0.000000  0.000059  0.000010 -0.000000 -0.000000  0.000003
                                 0.000387 -0.000584 -0.002092  0.000018 -0.000000  0.000159 -0.000046 -0.000000  0.001582  0.000151
                                 0.000000  0.000062  0.000004 -0.000000 -0.000018  0.000272  0.000244  0.000000  0.000007 -0.000015
                                -0.000071 -0.000160  0.000056 -0.000019  0.000013  0.000002 -0.000010 -0.000007 -0.000018  0.000272
                                 0.000244  0.000000 -0.000007 -0.000015 -0.000071  0.000160  0.000056 -0.000019 -0.000013  0.000002
                                -0.000010  0.000007 -0.000008  0.000258  0.000174 -0.000008  0.000000 -0.000019  0.000183 -0.000000
                                 0.000045 -0.000015 -0.000000 -0.000002  0.000020  0.000000  0.998523 -0.002077  0.002066  0.000346
                                 0.004005 -0.000000 -0.001671 -0.003205  0.000000  0.001551 -0.001663  0.000000  0.000406  0.000451
                                -0.000000 -0.000065  0.000048 -0.000000 -0.000197  0.000000 -0.000124 -0.000512  0.000000  0.000050
                                -0.000000  0.000084 -0.000081  0.000000  0.000000 -0.000017  0.002440  0.000042 -0.000935 -0.000334
                                 0.000000 -0.000063 -0.000688 -0.000000 -0.000113  0.000052  0.000000  0.000001 -0.000058  0.000000

   2.1   +   -11.2448  -32.9379  0.999081  0.002738  0.002258  0.003119  0.000065  0.000000  0.000204 -0.000138 -0.000000 -0.000048
                                -0.000144  0.000000  0.000294  0.000283  0.000000 -0.000023 -0.000002 -0.000000  0.000025 -0.000000
                                -0.000004  0.000036 -0.000000 -0.000074  0.000000  0.000595 -0.000642  0.000000  0.000002 -0.000023
                                 0.001429 -0.001987 -0.001826 -0.000018  0.000000  0.000112  0.000019 -0.000000 -0.000131 -0.000579
                                 0.000000  0.000057 -0.000003 -0.000000  0.000662 -0.000947 -0.000990  0.000152  0.000268 -0.000061
                                 0.000147  0.000226 -0.000089  0.000100 -0.000196  0.000037  0.000111  0.000065  0.000662 -0.000947
                                -0.000990  0.000152 -0.000269 -0.000061  0.000147 -0.000226 -0.000089  0.000100  0.000196  0.000037
                                 0.000111 -0.000065  0.000712 -0.001140 -0.001063 -0.000303  0.000000 -0.000076 -0.000321  0.000000
                                -0.000117  0.000091  0.000000 -0.000091 -0.000225  0.000000  0.000079  0.000181 -0.000128  0.000463
                                 0.000008 -0.000000  0.000222 -0.000012  0.000000 -0.000446 -0.000168 -0.000000 -0.000274  0.000012
                                 0.000000 -0.000006  0.000006  0.000000  0.000221 -0.000000  0.000045 -0.000026 -0.000000 -0.000014
                                 0.000000 -0.000088 -0.000003  0.000000 -0.000000  0.000002  0.000059  0.000062  0.000143  0.000004
                                -0.000000 -0.000016 -0.000041  0.000000  0.000003 -0.000007 -0.000000  0.000010 -0.000009 -0.000000

   3.1   +    -1.3605  -11.0438 -0.000960  0.042020 -0.001293 -0.012291 -0.000394  0.000000  0.022661 -0.000975  0.000000  0.003745
                                -0.001386  0.000001 -0.003583  0.001814  0.000000 -0.000051 -0.000002  0.000000  0.004399 -0.000001
                                -0.000862  0.000482 -0.000000 -0.000128  0.000000  0.000976 -0.000142 -0.000000  0.000000  0.000073
                                 0.176387 -0.057565 -0.070942  0.000422 -0.000000  0.005351  0.001200 -0.000000  0.009931  0.002056
                                 0.000000 -0.000080 -0.000066 -0.000000  0.009635  0.000200 -0.001770 -0.000130 -0.000163  0.000153
                                -0.000558 -0.001081  0.000934 -0.000024  0.000085 -0.000052 -0.000042 -0.000139  0.009635  0.000199
                                -0.001770 -0.000129  0.000163  0.000153 -0.000556  0.001082  0.000933 -0.000024 -0.000085 -0.000052
                                -0.000042  0.000139  0.009675 -0.001326 -0.002876  0.000175 -0.000000  0.000150  0.000876 -0.000001
                                 0.000346 -0.000064 -0.000000  0.000061  0.000071 -0.000000 -0.004536  0.910279 -0.004331 -0.045886
                                 0.108587 -0.000001 -0.052462  0.003655  0.000000 -0.006445 -0.026634  0.000000  0.010238  0.004230
                                -0.000000 -0.000136  0.003655 -0.000000  0.010110 -0.000000 -0.000788  0.007009 -0.000000 -0.000269
                                 0.000000 -0.001605  0.001591 -0.000000 -0.000000  0.000155  0.397536 -0.121916 -0.146010 -0.014269
                                 0.000000 -0.002493 -0.013874  0.000000 -0.002830 -0.001523 -0.000000  0.000820  0.002985 -0.000000

   4.1   +    -0.9792   -8.3822 -0.012624  0.805496 -0.017245 -0.117180 -0.002018  0.000001  0.015798 -0.000796  0.000000  0.013695
                                 0.003520 -0.000002 -0.003100  0.001809  0.000000 -0.000383 -0.000054  0.000000  0.008224  0.000000
                                -0.000993  0.000696 -0.000000 -0.000871  0.000000  0.006022 -0.005873  0.000000  0.000016 -0.000155
                                 0.235854 -0.052603 -0.090810  0.000259 -0.000000 -0.006234  0.001410  0.000000 -0.000899  0.002327
                                -0.000000 -0.000068  0.000227 -0.000000  0.342180 -0.079979 -0.122202 -0.004039 -0.006991  0.001965
                                -0.003133 -0.004595  0.001372 -0.000461  0.001130 -0.000293 -0.000567 -0.000515  0.342178 -0.079977
                                -0.122202 -0.004026  0.006998  0.001965 -0.003125  0.004601  0.001370 -0.000461 -0.001127 -0.000292
                                -0.000571  0.000515  0.342206 -0.079078 -0.120013  0.008012 -0.000007  0.002346  0.005877 -0.000005
                                 0.001414 -0.000458 -0.000002  0.000751  0.001271 -0.000001  0.000340 -0.092287 -0.000074 -0.011771
                                -0.032176  0.000001 -0.093705 -0.000107 -0.000000  0.001924  0.005730 -0.000000  0.014489  0.001285
                                 0.000000 -0.000439 -0.000763 -0.000000  0.001787 -0.000000 -0.001656 -0.001593  0.000000  0.000006
                                 0.000000 -0.000797 -0.000257  0.000000 -0.000000 -0.000396 -0.077041  0.019651  0.026961  0.002628
                                -0.000000 -0.000473  0.002875  0.000000 -0.001541  0.000326 -0.000000  0.000076 -0.000751 -0.000000

   5.1   +    -0.7053   -9.1472 -0.002956  0.123986 -0.003115  0.004494  0.035130  0.000002 -0.267505 -0.001896 -0.000001  0.001241
                                -0.006820 -0.000001  0.034677 -0.009475  0.000002  0.000903 -0.000538 -0.000000 -0.014879  0.000001
                                 0.002000 -0.000295 -0.000000  0.000660  0.000000 -0.001305 -0.001906  0.000000  0.000005 -0.000061
                                -0.438637  0.079553  0.142926  0.001483  0.000000 -0.003816  0.001244  0.000000 -0.014813 -0.005526
                                 0.000000  0.001270 -0.000359 -0.000000  0.151847 -0.034661 -0.048591 -0.001681 -0.003244 -0.001065
                                 0.000340 -0.000869 -0.004745 -0.000482  0.000435  0.000333 -0.000369  0.000489  0.151801 -0.034656
                                -0.048580 -0.001675  0.003246 -0.001065  0.000342  0.000868 -0.004746 -0.000482 -0.000433  0.000332
                                -0.000370 -0.000490  0.116135 -0.030679 -0.040277  0.002912 -0.000002 -0.001280 -0.000459  0.000001
                                -0.005740 -0.000506 -0.000001 -0.000777  0.000409  0.000001 -0.004769 -0.051371  0.000629 -0.038834
                                 0.374622 -0.000008  0.629400 -0.007420  0.000000  0.004516 -0.038949  0.000001 -0.038818 -0.007953
                                -0.000000  0.003112  0.005247  0.000000 -0.016701 -0.000000  0.007930  0.010383  0.000000  0.001248
                                -0.000000  0.004279  0.001807 -0.000000 -0.000000  0.002168  0.447094 -0.065919 -0.129046 -0.011670
                                 0.000000  0.004032 -0.021373  0.000000  0.009792 -0.001872 -0.000000 -0.001318  0.004521  0.000000

   6.1   +    -0.6286   -9.1371  0.001247 -0.029969  0.000241  0.055937  0.097155  0.000007  0.172464 -0.002498 -0.000001 -0.004356
                                -0.002047 -0.000006  0.010673  0.004636  0.000006 -0.000871 -0.002369  0.000000  0.009377  0.000014
                                -0.003839 -0.003673 -0.000000  0.000004  0.000000  0.002133  0.000082 -0.000001 -0.000000  0.000345
                                 0.199914 -0.046171 -0.153315  0.003947 -0.000000 -0.000235  0.014783  0.000001 -0.000867  0.000695
                                -0.000000  0.001679  0.000507 -0.000000 -0.012615 -0.007633  0.007040  0.001227  0.000337  0.001410
                                 0.000807  0.002999  0.002960  0.000599 -0.000402 -0.000186  0.000149 -0.000644 -0.012781 -0.007593
                                 0.007080  0.001229 -0.000341  0.001410  0.000803 -0.003000  0.002956  0.000599  0.000403 -0.000185
                                 0.000151  0.000643 -0.165646  0.029992  0.055875 -0.003842  0.000004  0.000091 -0.002108  0.000003
                                 0.001383  0.000530  0.000002  0.000180 -0.000826  0.000000 -0.004628 -0.290799 -0.002210 -0.118273
                                 0.683238 -0.000003 -0.399917 -0.013055  0.000000 -0.000414 -0.043925  0.000001 -0.019340 -0.003649
                                -0.000000 -0.002302  0.007097 -0.000000 -0.004790 -0.000000 -0.011313  0.013484  0.000000  0.002247
                                 0.000000 -0.002761  0.002635 -0.000000 -0.000000 -0.001257  0.486254 -0.044745 -0.136861 -0.010561
                                 0.000000 -0.006364 -0.021223  0.000000 -0.017831 -0.000881 -0.000000  0.003010  0.004232 -0.000000

   7.1   +    -0.5855   -7.2408 -0.000000 -0.000004  0.000000 -0.000013  0.000485  0.677866 -0.000009 -0.000032 -0.042144  0.000001
                                -0.000078 -0.100526 -0.000002 -0.000001  0.015141 -0.000004  0.000030 -0.005584  0.000000  0.019412
                                -0.000003  0.000038 -0.005837  0.000002  0.002275 -0.000000  0.000000 -0.000510  0.000010 -0.000001
                                -0.000018  0.000004  0.000022  0.000001  0.003593  0.000001  0.000005  0.011408  0.000004 -0.000000
                                 0.000397 -0.000001  0.000000 -0.000735  0.587259 -0.080607 -0.140549 -0.008083 -0.008919  0.003925
                                -0.011249 -0.009934  0.004391 -0.001116  0.003106 -0.001117 -0.000544 -0.001518 -0.587371  0.080631
                                 0.140583  0.008066 -0.008936 -0.003926  0.011230 -0.009956 -0.004390  0.001117  0.003104  0.001114
                                 0.000556 -0.001520  0.000124 -0.000018 -0.000034  0.000007  0.004796  0.000001  0.000012  0.010546
                                 0.000001 -0.000000  0.002069  0.000001  0.000004  0.000572  0.000001  0.000040  0.000000  0.000010
                                -0.000105  0.136538  0.000021  0.000000 -0.000334 -0.000000  0.000001  0.001159  0.000005  0.000001
                                 0.000697 -0.000000 -0.000001 -0.000698  0.000002  0.002183  0.000001 -0.000003 -0.001539 -0.000000
                                 0.000957  0.000000 -0.000000 -0.000022  0.000474  0.000000 -0.000085  0.000016  0.000024  0.000002
                                 0.001400  0.000001  0.000001  0.005210  0.000000  0.000000 -0.000763 -0.000000 -0.000000 -0.000187

   8.1   +    -0.5820   -7.2408  0.000065  0.000599 -0.000026  0.014069 -0.680558  0.000487  0.000595  0.042353 -0.000029  0.000168
                                 0.096505 -0.000065  0.006269  0.000999 -0.000030  0.006790  0.014922 -0.000005  0.001943 -0.000035
                                 0.005871  0.017993 -0.000005 -0.002147  0.000002  0.000165 -0.000104  0.000000  0.000000  0.000064
                                 0.025182 -0.004694 -0.033361 -0.002169  0.000003 -0.000700 -0.006696  0.000008 -0.003571  0.000224
                                -0.000000  0.001649 -0.000001 -0.000000 -0.346993  0.045797  0.085956  0.000001  0.008146 -0.002349
                                -0.003655  0.012281 -0.001727  0.000775 -0.000707  0.000176  0.002407  0.001025 -0.346778  0.045773
                                 0.085908 -0.000017 -0.008142 -0.002348 -0.003681 -0.012270 -0.001726  0.000775  0.000697  0.000174
                                 0.002409 -0.001025  0.673448 -0.092959 -0.166593  0.013264 -0.000013  0.005448  0.016161 -0.000017
                                 0.004609 -0.001084 -0.000006  0.002345  0.003277 -0.000002 -0.001077 -0.050809 -0.000353 -0.020822
                                 0.134632  0.000100 -0.030117 -0.002581 -0.000000  0.000253 -0.005608  0.000001 -0.005833 -0.001006
                                 0.000000  0.000109  0.001496 -0.000001 -0.001585  0.000001 -0.000718  0.002925 -0.000001  0.000253
                                 0.000001 -0.000263  0.000547  0.000000  0.000000 -0.000016  0.106343 -0.011306 -0.025669 -0.002452
                                 0.000001 -0.000472 -0.004652  0.000003 -0.003121 -0.000181 -0.000001  0.000470  0.000959 -0.000000

   9.1   +    -0.5188   -9.2994 -0.000000  0.000000  0.000000 -0.000004  0.000002 -0.117587  0.000001 -0.000001  0.017268  0.000000
                                -0.000008  0.043011 -0.000002  0.000000 -0.002777 -0.000000 -0.000007  0.001827  0.000000  0.003908
                                -0.000000  0.000008 -0.002239 -0.000000 -0.000281 -0.000000  0.000000 -0.000890  0.000037 -0.000002
                                 0.000001 -0.000000  0.000003 -0.000000  0.004620  0.000000  0.000001  0.014304  0.000001  0.000000
                                 0.000250 -0.000000 -0.000000  0.003737 -0.102877 -0.008421  0.019898  0.001349  0.002127 -0.000945
                                 0.005583  0.005430  0.000913  0.000547 -0.000918  0.000015  0.000309  0.000305  0.102984  0.008433
                                -0.019909 -0.001347  0.002131  0.000946 -0.005569  0.005454 -0.000912 -0.000548 -0.000917 -0.000015
                                -0.000314  0.000305 -0.000106 -0.000008  0.000011 -0.000002 -0.000175 -0.000001 -0.000013 -0.004433
                                -0.000001  0.000001 -0.000387 -0.000000 -0.000002  0.000248  0.000000  0.000000 -0.000000  0.000001
                                 0.000010  0.934224  0.000007  0.000000 -0.005302  0.000000  0.000002  0.047139  0.000001 -0.000000
                                 0.004671  0.000000  0.000000 -0.002322 -0.000000  0.014876  0.000000  0.000000 -0.008751  0.000000
                                 0.005250  0.000000  0.000000  0.000315  0.003361  0.000000  0.000000 -0.000002 -0.000001  0.000000
                                 0.009978  0.000000  0.000001  0.030765  0.000001  0.000000 -0.004917 -0.000000 -0.000000 -0.000739

  10.1   +    -0.4387   -8.1736  0.004341  0.154352  0.000429  0.069913 -0.015485  0.000008  0.736860 -0.003627  0.000002 -0.002903
                                -0.007141  0.000002 -0.004833  0.013760  0.000000 -0.001360 -0.000163  0.000000  0.020522 -0.000004
                                -0.000114  0.002317  0.000000  0.000003 -0.000000  0.002811  0.000735  0.000000 -0.000002 -0.000092
                                 0.257599  0.006049 -0.103971  0.000781  0.000000 -0.020069  0.001531 -0.000000 -0.037243  0.006433
                                 0.000000 -0.000414  0.000098  0.000000 -0.146088  0.024750  0.022473  0.001561  0.003088  0.005472
                                 0.000773  0.001376  0.013583  0.001016 -0.000602 -0.001194  0.000387 -0.001903 -0.146102  0.024746
                                 0.022474  0.001555 -0.003091  0.005471  0.000772 -0.001379  0.013582  0.001016  0.000601 -0.001191
                                 0.000389  0.001905 -0.161730  0.016123  0.021903 -0.004197  0.000004  0.005126 -0.005764  0.000006
                                 0.013114  0.001291  0.000002  0.001947 -0.001094 -0.000002 -0.002835 -0.107578  0.000178 -0.062696
                                -0.024675 -0.000003  0.549730 -0.002636 -0.000000  0.008626 -0.008731 -0.000000  0.037362 -0.000933
                                -0.000000  0.002928  0.000049 -0.000000 -0.004208 -0.000000  0.008734 -0.000378  0.000000  0.000430
                                -0.000000  0.003266 -0.000048 -0.000000 -0.000000  0.001677  0.037426  0.003692  0.017626 -0.000218
                                -0.000000  0.005611 -0.008212  0.000000  0.012761 -0.000346 -0.000000 -0.002323  0.001075  0.000000

 ELECTRON ORBITALS FOR NEGATIVE SPIN
 ===================================


   Orb  Occ    Energy  Couls-En    Coefficients

                                   1 1s      1 1s      1 1s      1 1s      1 2px     1 2py     1 2pz     1 2px     1 2py     1 2pz  
                                   1 2px     1 2py     1 2pz     1 3d0     1 3d2-    1 3d1+    1 3d2+    1 3d1-    1 3d0     1 3d2- 
                                   1 3d1+    1 3d2+    1 3d1-    1 4f1+    1 4f1-    1 4f0     1 4f3+    1 4f2-    1 4f3-    1 4f2+ 
                                   2 1s      2 1s      2 1s      2 2px     2 2py     2 2pz     2 2px     2 2py     2 2pz     2 3d0  
                                   2 3d2-    2 3d1+    2 3d2+    2 3d1-    3 1s      3 1s      3 1s      3 2px     3 2py     3 2pz  
                                   3 2px     3 2py     3 2pz     3 3d0     3 3d2-    3 3d1+    3 3d2+    3 3d1-    4 1s      4 1s   
                                   4 1s      4 2px     4 2py     4 2pz     4 2px     4 2py     4 2pz     4 3d0     4 3d2-    4 3d1+ 
                                   4 3d2+    4 3d1-    5 1s      5 1s      5 1s      5 2px     5 2py     5 2pz     5 2px     5 2py  
                                   5 2pz     5 3d0     5 3d2-    5 3d1+    5 3d2+    5 3d1-    6 1s      6 1s      6 1s      6 1s   
                                   6 2px     6 2py     6 2pz     6 2px     6 2py     6 2pz     6 2px     6 2py     6 2pz     6 3d0  
                                   6 3d2-    6 3d1+    6 3d2+    6 3d1-    6 3d0     6 3d2-    6 3d1+    6 3d2+    6 3d1-    6 4f1+ 
                                   6 4f1-    6 4f0     6 4f3+    6 4f2-    6 4f3-    6 4f2+    7 1s      7 1s      7 1s      7 2px  
                                   7 2py     7 2pz     7 2px     7 2py     7 2pz     7 3d0     7 3d2-    7 3d1+    7 3d2+    7 3d1- 


   1.1   -   -20.5555  -55.2759  0.000024  0.000031 -0.000126  0.000769  0.000014  0.000000 -0.000282 -0.000061 -0.000000  0.001100
                                -0.000145  0.000000  0.000869  0.000037  0.000000  0.000013  0.000001 -0.000000  0.000526 -0.000000
                                -0.000091 -0.000001  0.000000  0.000011  0.000000  0.000043  0.000012 -0.000000 -0.000000  0.000002
                                 0.000423 -0.000570 -0.001983  0.000014 -0.000000  0.000125 -0.000014 -0.000000  0.001445  0.000170
                                 0.000000  0.000067  0.000007 -0.000000 -0.000029  0.000291  0.000236 -0.000002  0.000004 -0.000016
                                -0.000071 -0.000156  0.000063 -0.000019  0.000014  0.000002 -0.000010 -0.000007 -0.000030  0.000291
                                 0.000236 -0.000002 -0.000004 -0.000016 -0.000071  0.000156  0.000063 -0.000019 -0.000014  0.000002
                                -0.000010  0.000007 -0.000027  0.000268  0.000167 -0.000007  0.000000 -0.000022  0.000182 -0.000000
                                 0.000047 -0.000016 -0.000000 -0.000003  0.000021  0.000000  0.999781 -0.001561 -0.000007  0.000173
                                 0.003888 -0.000000 -0.001635 -0.002980  0.000000  0.001703 -0.001567  0.000000  0.000239 -0.000643
                                -0.000000  0.000098  0.000057  0.000000 -0.000172  0.000000 -0.000089 -0.000458  0.000000  0.000025
                                -0.000000  0.000052 -0.000058  0.000000  0.000000 -0.000003  0.002388 -0.000284 -0.000869 -0.000226
                                 0.000000 -0.000066 -0.000497 -0.000000 -0.000076  0.000089  0.000000 -0.000003 -0.000157  0.000000

   2.1   -   -11.2279  -32.9231  0.999836  0.002237  0.000956  0.003056  0.000051  0.000000  0.000602 -0.000067 -0.000000 -0.002163
                                -0.000145  0.000000 -0.000027 -0.000951  0.000000  0.000042  0.000001 -0.000000 -0.000778 -0.000000
                                 0.000100  0.000039 -0.000000 -0.000034  0.000000  0.000404 -0.000758  0.000000  0.000002 -0.000030
                                 0.000919 -0.000071 -0.001762 -0.000011  0.000000  0.000112  0.000096 -0.000000 -0.001327 -0.000282
                                 0.000000  0.000021 -0.000002  0.000000  0.000465 -0.001347 -0.000868  0.000183  0.000321 -0.000082
                                 0.000260  0.000409 -0.000090  0.000108 -0.000206  0.000051  0.000113  0.000093  0.000465 -0.001348
                                -0.000868  0.000182 -0.000321 -0.000082  0.000260 -0.000410 -0.000090  0.000108  0.000205  0.000051
                                 0.000114 -0.000093  0.000516 -0.001610 -0.000952 -0.000364  0.000000 -0.000101 -0.000569  0.000001
                                -0.000125  0.000097  0.000000 -0.000127 -0.000234  0.000000  0.000094  0.000273 -0.000127  0.000589
                                 0.000015 -0.000000  0.000115 -0.000022  0.000000 -0.000492 -0.000197 -0.000000 -0.000324  0.000011
                                 0.000000 -0.000009  0.000005  0.000000  0.000200 -0.000000  0.000045 -0.000030 -0.000000 -0.000007
                                 0.000000 -0.000045 -0.000004  0.000000 -0.000000  0.000002  0.000048  0.000091  0.000177 -0.000001
                                -0.000000 -0.000019 -0.000062  0.000000 -0.000002 -0.000007 -0.000000  0.000011  0.000001 -0.000000

   3.1   -    -1.2637  -10.7820 -0.001714  0.050304 -0.001920 -0.025063 -0.000203  0.000000  0.021893 -0.000889  0.000000  0.001406
                                -0.000074  0.000001 -0.009372  0.001356  0.000000 -0.000028 -0.000005  0.000000  0.002290 -0.000001
                                -0.000884  0.000538 -0.000000 -0.000160 -0.000000  0.000941 -0.000157 -0.000000  0.000000  0.000108
                                 0.217302 -0.050213 -0.065614  0.000537 -0.000000  0.006365  0.003164 -0.000000  0.010138  0.001890
                                 0.000000  0.000042 -0.000046 -0.000000  0.014141 -0.000457 -0.004663 -0.000170 -0.000289  0.000198
                                -0.000665 -0.000855  0.001443  0.000042  0.000101 -0.000077 -0.000034 -0.000187  0.014141 -0.000457
                                -0.004661 -0.000169  0.000289  0.000198 -0.000664  0.000856  0.001442  0.000042 -0.000101 -0.000077
                                -0.000034  0.000187  0.013822 -0.001235 -0.005198  0.000314 -0.000000  0.000233  0.000801 -0.000001
                                 0.000645 -0.000028 -0.000000  0.000103  0.000077 -0.000000 -0.008917  0.855015 -0.006049 -0.026802
                                 0.109848 -0.000001  0.009650  0.002896  0.000000 -0.005107 -0.026842  0.000000 -0.003571 -0.005856
                                -0.000000  0.001931  0.003851  0.000000 -0.010847 -0.000000  0.002543  0.007000  0.000000 -0.001377
                                 0.000000 -0.001850  0.001656 -0.000000 -0.000000  0.000437  0.446882 -0.129923 -0.162467 -0.014976
                                 0.000000 -0.002320 -0.012999  0.000000 -0.003008 -0.001939 -0.000000  0.000788  0.002619 -0.000000

   4.1   -    -0.9196   -8.1640 -0.015210  0.751119 -0.019315 -0.102016  0.001354 -0.000000 -0.078674 -0.000361  0.000000  0.004575
                                 0.003380 -0.000002  0.022296 -0.011115  0.000000  0.000299 -0.000059 -0.000000 -0.017602  0.000001
                                 0.000386  0.000540 -0.000001 -0.000781  0.000000  0.006423 -0.006706  0.000000  0.000018 -0.000178
                                 0.220619 -0.029626 -0.080147  0.000112 -0.000000 -0.003455  0.002660  0.000000  0.003789  0.000174
                                -0.000000  0.000171  0.000238 -0.000000  0.382280 -0.092119 -0.131475 -0.004168 -0.007239  0.002171
                                -0.001280 -0.001389  0.000528 -0.000366  0.000736 -0.000292 -0.000342 -0.000532  0.382276 -0.092116
                                -0.131475 -0.004155  0.007247  0.002171 -0.001278  0.001392  0.000527 -0.000366 -0.000735 -0.000291
                                -0.000345  0.000532  0.381200 -0.090486 -0.128558  0.008256 -0.000007  0.002625  0.002295 -0.000002
                                 0.000691 -0.000350 -0.000001  0.000779  0.000808 -0.000001  0.000409 -0.095686 -0.000274 -0.013449
                                -0.038989  0.000001 -0.066280  0.000269 -0.000000  0.001882  0.007935 -0.000000  0.010488  0.002267
                                 0.000000 -0.000542 -0.000872 -0.000000  0.004712 -0.000000 -0.001379 -0.001568  0.000000  0.000199
                                 0.000000 -0.000348 -0.000285  0.000000 -0.000000 -0.000324 -0.090360  0.020486  0.029930  0.002900
                                -0.000000 -0.000323  0.003573  0.000000 -0.001504  0.000505 -0.000000 -0.000018 -0.000821 -0.000000

   5.1   -    -0.6405   -8.9876 -0.000571  0.072722 -0.001220  0.046015  0.087155  0.000008 -0.107509 -0.005041 -0.000001  0.003342
                                -0.008107 -0.000004  0.040446 -0.005706  0.000005 -0.000360 -0.001986 -0.000000 -0.007452  0.000008
                                -0.000975 -0.002107 -0.000001 -0.000148 -0.000000  0.000883 -0.001316 -0.000001  0.000004  0.000201
                                -0.312875  0.022813  0.002519  0.003857 -0.000000 -0.003392  0.009158  0.000001 -0.013286 -0.003849
                                -0.000000  0.001841 -0.000010 -0.000000  0.120923 -0.029461 -0.030370 -0.000571 -0.002355  0.000022
                                 0.000396  0.000208 -0.001963 -0.000203  0.000107  0.000128 -0.000220 -0.000038  0.120771 -0.029434
                                -0.030334 -0.000565  0.002354  0.000021  0.000398 -0.000210 -0.001967 -0.000203 -0.000106  0.000129
                                -0.000220  0.000037 -0.009358 -0.004643  0.006549 -0.000098  0.000001 -0.001016 -0.001114  0.000002
                                -0.004268 -0.000173  0.000001 -0.000434 -0.000154  0.000001 -0.003965 -0.212517  0.000319 -0.104594
                                 0.693034 -0.000008  0.159934 -0.015322  0.000000  0.001368 -0.049192  0.000001 -0.029689 -0.005695
                                -0.000000  0.001773  0.008162 -0.000000 -0.010522 -0.000000 -0.000972  0.014964  0.000000 -0.001341
                                -0.000000 -0.000017  0.002797 -0.000000 -0.000000  0.001205  0.665062 -0.075729 -0.178950 -0.015308
                                 0.000000 -0.001035 -0.028566  0.000000 -0.005759 -0.002629 -0.000000  0.001187  0.005513 -0.000000

   6.1   -    -0.5750   -7.1493 -0.000000 -0.000013  0.000000 -0.000010  0.000530  0.655432  0.000026 -0.000043 -0.050967 -0.000001
                                -0.000085 -0.098763 -0.000005  0.000001  0.015920 -0.000007  0.000030 -0.009305  0.000002  0.017050
                                -0.000008  0.000031 -0.010097 -0.000002 -0.002533 -0.000000  0.000000 -0.000497  0.000021 -0.000001
                                 0.000041 -0.000002  0.000006  0.000002  0.003600  0.000001  0.000007  0.011357  0.000004  0.000000
                                 0.000493 -0.000001  0.000001 -0.000698  0.610527 -0.075999 -0.139096 -0.008000 -0.008797  0.003972
                                -0.011037 -0.009528  0.007659 -0.001351  0.002824 -0.001110 -0.000431 -0.001528 -0.610608  0.076017
                                 0.139122  0.007984 -0.008813 -0.003973  0.011020 -0.009548 -0.007658  0.001351  0.002822  0.001107
                                 0.000442 -0.001530  0.000046 -0.000006 -0.000013  0.000005  0.004768  0.000001  0.000010  0.010470
                                 0.000001  0.000000  0.001976  0.000001  0.000004  0.000601  0.000000  0.000023  0.000000  0.000005
                                -0.000090  0.104303 -0.000027  0.000000 -0.000524 -0.000000 -0.000000  0.003299  0.000004  0.000001
                                 0.000477 -0.000001 -0.000001 -0.000321  0.000002  0.001576 -0.000000 -0.000003 -0.001284  0.000000
                                 0.000233 -0.000000 -0.000000  0.000040  0.000342 -0.000000 -0.000091  0.000018  0.000024  0.000002
                                 0.001136 -0.000000  0.000001  0.004493 -0.000002  0.000000 -0.000641  0.000000 -0.000000 -0.000196

   7.1   -    -0.5717   -7.1480  0.000070 -0.012494  0.000016 -0.008798  0.656523 -0.000534  0.041425 -0.050683  0.000040 -0.002628
                                -0.092759  0.000072 -0.009012  0.000423  0.000029 -0.010534 -0.015514  0.000009  0.000511  0.000029
                                -0.010322 -0.015169  0.000009 -0.002652  0.000002 -0.000263  0.000181 -0.000001 -0.000000  0.000436
                                 0.049127 -0.002615  0.009443  0.002512 -0.000003  0.000858  0.008363 -0.000009  0.003583  0.000300
                                 0.000000 -0.001354  0.000099  0.000001  0.339990 -0.041219 -0.080140  0.000304 -0.007634  0.002610
                                 0.003792 -0.011082  0.004395 -0.000736  0.000488 -0.000212 -0.002149 -0.001136  0.339885 -0.041209
                                -0.080121  0.000319  0.007632  0.002610  0.003814  0.011073  0.004394 -0.000736 -0.000480 -0.000210
                                -0.002151  0.001136 -0.719328  0.091129  0.171128 -0.013581  0.000012 -0.005401 -0.015714  0.000015
                                -0.008190  0.001450  0.000006 -0.002336 -0.002998  0.000002  0.000464  0.023187 -0.000111  0.012020
                                -0.096623 -0.000085 -0.033774  0.001926  0.000000 -0.000258  0.004221 -0.000003  0.004112  0.000935
                                -0.000000 -0.000595 -0.001211  0.000000  0.001988 -0.000001 -0.000927 -0.002214  0.000001  0.000393
                                -0.000000  0.000015 -0.000408 -0.000000 -0.000000 -0.000269 -0.097821  0.011699  0.022206  0.002319
                                -0.000001 -0.000256  0.003972 -0.000003  0.000578  0.000384  0.000001 -0.000150 -0.000766  0.000000

   8.1   -    -0.4974   -8.3324 -0.000800 -0.068434 -0.003233  0.086216 -0.029827  0.000002  0.331877  0.008728  0.000000 -0.021868
                                 0.029574 -0.000007  0.006553  0.010539 -0.000001 -0.000666  0.000290  0.000000  0.021849  0.000012
                                -0.003064 -0.002486 -0.000000 -0.000639 -0.000000  0.001818 -0.000322 -0.000001  0.000001  0.000286
                                 0.681057 -0.043971 -0.210065  0.002670 -0.000000 -0.000261  0.014208  0.000001  0.011960  0.003203
                                -0.000000  0.001262  0.000962 -0.000000 -0.158519 -0.003415  0.028871  0.002379  0.003460  0.002093
                                 0.002279  0.011001  0.004282  0.001587 -0.001159 -0.000279  0.000969 -0.000525 -0.158487 -0.003390
                                 0.028863  0.002373 -0.003463  0.002094  0.002256 -0.011000  0.004280  0.001587  0.001155 -0.000277
                                 0.000973  0.000526 -0.132651  0.019957  0.041752 -0.003439  0.000003  0.002224 -0.003364  0.000002
                                 0.005605  0.001264  0.000002  0.000958 -0.000894 -0.000001 -0.004109 -0.281771 -0.004205 -0.110119
                                 0.298189  0.000034 -0.396873 -0.006305 -0.000000  0.004943  0.021936  0.000003 -0.026903  0.004522
                                 0.000000 -0.001586  0.001965 -0.000000  0.016976  0.000000 -0.008196  0.006356 -0.000000 -0.000597
                                 0.000000 -0.001405  0.001007  0.000000  0.000000 -0.000997  0.122588 -0.009214 -0.038771 -0.000776
                                 0.000000 -0.005256  0.003219  0.000001 -0.021046  0.001367 -0.000000  0.002239  0.000050 -0.000000

   9.1   -    -0.4877   -9.1925 -0.000000  0.000002  0.000000 -0.000008  0.000001 -0.093867 -0.000012 -0.000002  0.019864  0.000001
                                -0.000010  0.049362 -0.000003 -0.000000 -0.002439 -0.000000 -0.000006  0.001887 -0.000000  0.007046
                                -0.000000  0.000016 -0.001670 -0.000000  0.000216 -0.000000  0.000000 -0.000962  0.000036 -0.000002
                                -0.000025  0.000002  0.000012 -0.000000  0.005363  0.000000  0.000001  0.015745  0.000000 -0.000000
                                 0.000221 -0.000000 -0.000000  0.003548 -0.087820 -0.017628  0.012102  0.001067  0.001991 -0.000918
                                 0.006113  0.005881  0.000154  0.000569 -0.000850  0.000048  0.000316  0.000382  0.087921  0.017650
                                -0.012105 -0.001065  0.001995  0.000919 -0.006098  0.005909 -0.000152 -0.000570 -0.000849 -0.000048
                                -0.000321  0.000383 -0.000084 -0.000019 -0.000001 -0.000002  0.000173 -0.000001 -0.000014 -0.004824
                                -0.000002  0.000001 -0.000299 -0.000000 -0.000001  0.000270  0.000000  0.000011  0.000000  0.000004
                                -0.000001  0.915097  0.000020  0.000001 -0.008313 -0.000000  0.000001  0.077329  0.000002 -0.000000
                                 0.004103  0.000000 -0.000000 -0.000019 -0.000001  0.013356  0.000000  0.000000 -0.006632  0.000000
                                 0.000288  0.000000  0.000000  0.000972  0.003136  0.000000 -0.000004 -0.000002  0.000000  0.000000
                                 0.010560  0.000000  0.000001  0.033257  0.000001 -0.000000 -0.005244 -0.000000 -0.000000 -0.000874

 HOMO     10.1    -0.438739 =     -11.9387eV
 LUMO    -10.1     0.066730 =       1.8158eV
 LUMO-HOMO         0.505469 =      13.7545eV

 EXPECTATION VALUE OF S**2:             0.79589761

 Occupation number threshold for canonical orbitals:  1.999000 (occupied),  0.001000 (virtual)

 Number of pseudo-canonical orbitals per symmetry:    7
 Number of active natural orbitals per symmetry:      5

 NATURAL CHARGE ORBITALS
 =======================


   Orb     Occ        Energy       Coefficients

                                   1 1s      1 1s      1 1s      1 1s      1 2px     1 2py     1 2pz     1 2px     1 2py     1 2pz  
                                   1 2px     1 2py     1 2pz     1 3d0     1 3d2-    1 3d1+    1 3d2+    1 3d1-    1 3d0     1 3d2- 
                                   1 3d1+    1 3d2+    1 3d1-    1 4f1+    1 4f1-    1 4f0     1 4f3+    1 4f2-    1 4f3-    1 4f2+ 
                                   2 1s      2 1s      2 1s      2 2px     2 2py     2 2pz     2 2px     2 2py     2 2pz     2 3d0  
                                   2 3d2-    2 3d1+    2 3d2+    2 3d1-    3 1s      3 1s      3 1s      3 2px     3 2py     3 2pz  
                                   3 2px     3 2py     3 2pz     3 3d0     3 3d2-    3 3d1+    3 3d2+    3 3d1-    4 1s      4 1s   
                                   4 1s      4 2px     4 2py     4 2pz     4 2px     4 2py     4 2pz     4 3d0     4 3d2-    4 3d1+ 
                                   4 3d2+    4 3d1-    5 1s      5 1s      5 1s      5 2px     5 2py     5 2pz     5 2px     5 2py  
                                   5 2pz     5 3d0     5 3d2-    5 3d1+    5 3d2+    5 3d1-    6 1s      6 1s      6 1s      6 1s   
                                   6 2px     6 2py     6 2pz     6 2px     6 2py     6 2pz     6 2px     6 2py     6 2pz     6 3d0  
                                   6 3d2-    6 3d1+    6 3d2+    6 3d1-    6 3d0     6 3d2-    6 3d1+    6 3d2+    6 3d1-    6 4f1+ 
                                   6 4f1-    6 4f0     6 4f3+    6 4f2-    6 4f3-    6 4f2+    7 1s      7 1s      7 1s      7 2px  
                                   7 2py     7 2pz     7 2px     7 2py     7 2pz     7 3d0     7 3d2-    7 3d1+    7 3d2+    7 3d1- 


   1.1  2.00000   -20.568982     0.000223  0.004210 -0.000231  0.000208 -0.000045  0.000000 -0.001297 -0.000061 -0.000000  0.001206
                                -0.000131  0.000000  0.001027 -0.000012 -0.000000  0.000015  0.000003 -0.000000  0.000481 -0.000000
                                -0.000083  0.000001  0.000000  0.000006  0.000000  0.000079 -0.000024 -0.000000  0.000000  0.000001
                                 0.000233 -0.000602 -0.002059  0.000016 -0.000000  0.000111 -0.000031 -0.000000  0.001492  0.000154
                                 0.000000  0.000066  0.000005 -0.000000  0.002134 -0.000207 -0.000488 -0.000026 -0.000037 -0.000010
                                -0.000084 -0.000179  0.000050 -0.000023  0.000020  0.000002 -0.000013 -0.000008  0.002134 -0.000207
                                -0.000488 -0.000026  0.000037 -0.000010 -0.000084  0.000179  0.000050 -0.000023 -0.000020  0.000002
                                -0.000013  0.000008  0.002275 -0.000251 -0.000589  0.000044 -0.000000 -0.000012  0.000209 -0.000000
                                 0.000037 -0.000020 -0.000000 -0.000000  0.000028 -0.000000  0.999143 -0.003252  0.001038  0.000284
                                 0.003940 -0.000000 -0.001183 -0.003102  0.000000  0.001643 -0.001608  0.000000  0.000341 -0.000101
                                -0.000000  0.000018  0.000049  0.000000 -0.000204  0.000000 -0.000102 -0.000492  0.000000  0.000039
                                -0.000000  0.000072 -0.000071  0.000000  0.000000 -0.000009  0.001993  0.000054 -0.000720 -0.000263
                                 0.000000 -0.000057 -0.000587 -0.000000 -0.000078  0.000071  0.000000 -0.000004 -0.000110  0.000000

   2.1  2.00000   -11.230871     0.999508 -0.014941  0.002014  0.005447  0.000344  0.000000  0.002310 -0.000119 -0.000000 -0.001313
                                -0.000271  0.000000 -0.000218 -0.000193  0.000000  0.000002 -0.000006 -0.000000 -0.000215 -0.000000
                                 0.000044  0.000019  0.000000 -0.000038  0.000000  0.000367 -0.000555  0.000000  0.000001 -0.000023
                                -0.001749 -0.000480 -0.000463 -0.000022  0.000000  0.000242  0.000014 -0.000000 -0.000700 -0.000432
                                 0.000000  0.000032 -0.000008  0.000000 -0.007761  0.000856  0.001971  0.000263  0.000458 -0.000109
                                 0.000253  0.000376 -0.000083  0.000115 -0.000223  0.000049  0.000122  0.000087 -0.007762  0.000855
                                 0.001971  0.000262 -0.000458 -0.000109  0.000253 -0.000377 -0.000083  0.000115  0.000222  0.000049
                                 0.000122 -0.000087 -0.008205  0.000644  0.001945 -0.000531  0.000000 -0.000139 -0.000547  0.000000
                                -0.000123  0.000106  0.000000 -0.000124 -0.000256  0.000000 -0.000078  0.006364 -0.000147  0.000816
                                -0.000378  0.000000  0.001072  0.000028  0.000000 -0.000538 -0.000315  0.000000 -0.000435 -0.000009
                                 0.000000  0.000002  0.000019  0.000000  0.000181 -0.000000  0.000078 -0.000002 -0.000000 -0.000017
                                 0.000000 -0.000065  0.000003  0.000000 -0.000000  0.000008  0.002039 -0.000685 -0.000646 -0.000081
                                -0.000000 -0.000019 -0.000109  0.000000  0.000024 -0.000017 -0.000000  0.000012  0.000011 -0.000000

   3.1  1.99924    -1.279090    -0.003971  0.186767 -0.004544 -0.043335  0.000057 -0.000000 -0.049643 -0.001539  0.000000  0.006057
                                -0.002579  0.000002 -0.001386 -0.001323 -0.000000  0.000189  0.000048 -0.000000 -0.001264 -0.000002
                                -0.000292  0.000906 -0.000000 -0.000146  0.000000  0.001581 -0.001338  0.000000  0.000004  0.000024
                                 0.116763 -0.045997 -0.044000  0.000352 -0.000000  0.004697  0.001072 -0.000000  0.007732  0.001180
                                 0.000000  0.000002 -0.000145 -0.000000  0.098107 -0.017150 -0.030714 -0.001211 -0.001970  0.000121
                                -0.001141 -0.002401  0.000226 -0.000257  0.000388 -0.000035 -0.000220 -0.000109  0.098109 -0.017153
                                -0.030713 -0.001208  0.001972  0.000122 -0.001137  0.002403  0.000225 -0.000257 -0.000388 -0.000035
                                -0.000221  0.000109  0.101446 -0.020970 -0.033690  0.002322 -0.000002  0.000247  0.001880 -0.000002
                                -0.000537 -0.000298 -0.000001  0.000035  0.000398 -0.000000 -0.006447  0.865435 -0.004593 -0.029986
                                 0.103864 -0.000001  0.068220  0.003117  0.000000 -0.005307 -0.029577  0.000000  0.003385 -0.001583
                                -0.000000  0.001313  0.003783 -0.000000 -0.002728 -0.000000  0.002294  0.006883 -0.000000 -0.000766
                                 0.000000 -0.001205  0.001593 -0.000000 -0.000000  0.000570  0.426581 -0.124672 -0.153616 -0.014756
                                 0.000000 -0.001466 -0.014578  0.000000 -0.000173 -0.001925 -0.000000  0.000434  0.002972 -0.000000

   4.1  1.99964    -0.642033     0.000688 -0.029987 -0.000016  0.071291  0.085402  0.000007  0.011205 -0.002586 -0.000001 -0.004256
                                -0.002238 -0.000006  0.033004 -0.001085  0.000005 -0.000422 -0.002009  0.000000  0.000430  0.000011
                                -0.001979 -0.002979 -0.000001  0.000055 -0.000000  0.000638 -0.000528 -0.000001  0.000001  0.000285
                                -0.098731  0.010918 -0.048539  0.004272 -0.000000 -0.002566  0.012834  0.000001 -0.009478 -0.002597
                                -0.000000  0.002106  0.000236 -0.000000  0.030825 -0.018217 -0.007314  0.000575 -0.000571  0.000488
                                 0.001193  0.003149 -0.000249  0.000321 -0.000279  0.000046  0.000062 -0.000203  0.030679 -0.018183
                                -0.007279  0.000578  0.000568  0.000487  0.001189 -0.003151 -0.000253  0.000321  0.000279  0.000047
                                 0.000063  0.000202 -0.099322  0.013416  0.034130 -0.002219  0.000003 -0.000627 -0.002501  0.000003
                                -0.002118  0.000253  0.000001 -0.000245 -0.000552  0.000001 -0.005826 -0.273786 -0.001228 -0.125637
                                 0.763408 -0.000007  0.035617 -0.015733  0.000000  0.002426 -0.049475  0.000001 -0.037800 -0.005935
                                -0.000000  0.000583  0.008623 -0.000000 -0.009407 -0.000000 -0.003982  0.016645  0.000000  0.000544
                                -0.000000 -0.000097  0.003092 -0.000000 -0.000000  0.000544  0.665897 -0.075560 -0.185149 -0.015186
                                 0.000000 -0.002727 -0.028058  0.000000 -0.010404 -0.001952 -0.000000  0.001764  0.005694 -0.000000

   5.1  1.99964    -0.579995    -0.000001  0.000016 -0.000000 -0.000017  0.000564  0.667023  0.000003 -0.000041 -0.046570  0.000001
                                -0.000090 -0.099682 -0.000003 -0.000000  0.015538 -0.000006  0.000029 -0.007447  0.000001  0.018244
                                -0.000006  0.000033 -0.007958 -0.000000 -0.000125  0.000000 -0.000000 -0.000502  0.000016 -0.000001
                                 0.000002  0.000000  0.000016  0.000002  0.003592  0.000001  0.000007  0.011364  0.000004 -0.000000
                                 0.000444 -0.000001  0.000000 -0.000725  0.599223 -0.078354 -0.139922 -0.008046 -0.008864  0.003951
                                -0.011150 -0.009740  0.006018 -0.001235  0.002967 -0.001113 -0.000488 -0.001523 -0.599235  0.078363
                                 0.139930  0.008029 -0.008878 -0.003951  0.011132 -0.009758 -0.006017  0.001235  0.002965  0.001110
                                 0.000499 -0.001525  0.000042 -0.000007 -0.000014  0.000005  0.004785  0.000000  0.000010  0.010514
                                 0.000001 -0.000000  0.002024  0.000001  0.000004  0.000586  0.000001  0.000033  0.000000  0.000010
                                -0.000105  0.118424 -0.000004  0.000000 -0.000439 -0.000000 -0.000000  0.002347  0.000006  0.000001
                                 0.000574 -0.000000 -0.000001 -0.000488  0.000002  0.001839  0.000000 -0.000003 -0.001379  0.000000
                                 0.000549  0.000000 -0.000001  0.000013  0.000400 -0.000000 -0.000095  0.000018  0.000026  0.000002
                                 0.001252  0.000000  0.000001  0.004807 -0.000000  0.000000 -0.000695  0.000000 -0.000000 -0.000191

   6.1  1.99963    -0.576899     0.000343 -0.019796  0.000424  0.016818 -0.670102  0.000566 -0.012930  0.046798 -0.000038  0.000377
                                 0.095388 -0.000077  0.007483  0.000669 -0.000028  0.008646  0.015247 -0.000007  0.001376 -0.000030
                                 0.008078  0.016516 -0.000007  0.000262 -0.000000  0.000012  0.000037  0.000000 -0.000000 -0.000178
                                -0.001471  0.000385 -0.021560 -0.002326  0.000003 -0.000646 -0.007390  0.000009 -0.003256 -0.000014
                                -0.000000  0.001512 -0.000037 -0.000001 -0.359051  0.046027  0.087529  0.000029  0.008201 -0.002505
                                -0.003575  0.012081 -0.003026  0.000809 -0.000656  0.000199  0.002317  0.001094 -0.358986  0.046024
                                 0.087518  0.000014 -0.008199 -0.002505 -0.003598 -0.012073 -0.003025  0.000809  0.000647  0.000197
                                 0.002319 -0.001095  0.682673 -0.089243 -0.164484  0.013109 -0.000012  0.005402  0.015686 -0.000015
                                 0.006486 -0.001219 -0.000006  0.002335  0.003086 -0.000002 -0.000886 -0.036160 -0.000229 -0.017540
                                 0.114218  0.000101  0.004968 -0.002213 -0.000000  0.000425 -0.003650  0.000002 -0.006265 -0.000858
                                 0.000000  0.000388  0.001327 -0.000000 -0.001323  0.000001  0.000193  0.002625 -0.000001 -0.000121
                                 0.000000 -0.000064  0.000477  0.000000  0.000000  0.000148  0.101513 -0.012149 -0.024250 -0.002362
                                 0.000001 -0.000105 -0.003972  0.000003 -0.002054 -0.000238 -0.000001  0.000307  0.000829 -0.000000

   7.1  1.99969    -0.503032    -0.000000 -0.000000  0.000000 -0.000004  0.000001 -0.104230  0.000001 -0.000001  0.018545  0.000000
                                -0.000008  0.045974 -0.000002  0.000000 -0.002583 -0.000000 -0.000006  0.001872  0.000000  0.005531
                                -0.000000  0.000012 -0.001936 -0.000000  0.000006 -0.000000  0.000000 -0.000927  0.000036 -0.000002
                                 0.000001 -0.000000  0.000003 -0.000000  0.004998  0.000000  0.000001  0.015047  0.000001  0.000000
                                 0.000235 -0.000000 -0.000000  0.003641 -0.094355 -0.013215  0.015713  0.001192  0.002041 -0.000924
                                 0.005824  0.005633  0.000519  0.000557 -0.000876  0.000029  0.000311  0.000340  0.094452  0.013232
                                -0.015718 -0.001189  0.002044  0.000925 -0.005810  0.005658 -0.000518 -0.000558 -0.000875 -0.000029
                                -0.000315  0.000341 -0.000097 -0.000013  0.000005 -0.000002  0.000008 -0.000001 -0.000013 -0.004607
                                -0.000001  0.000001 -0.000338 -0.000000 -0.000002  0.000260  0.000000 -0.000000 -0.000000  0.000000
                                 0.000011  0.925106  0.000005  0.000000 -0.006807  0.000000  0.000002  0.062218  0.000001  0.000000
                                 0.004390  0.000000  0.000000 -0.001174 -0.000000  0.014124  0.000000  0.000000 -0.007696  0.000000
                                 0.002776  0.000000  0.000000  0.000643  0.003250  0.000000  0.000000 -0.000002 -0.000001  0.000000
                                 0.010273  0.000000  0.000001  0.032024  0.000001  0.000000 -0.005083 -0.000000 -0.000000 -0.000807

   8.1  1.99897    -0.956475     0.009234  0.753801 -0.017620 -0.105040 -0.012210 -0.000002 -0.114083  0.000614  0.000000  0.009481
                                 0.004925 -0.000001  0.016465 -0.007077 -0.000001  0.000418  0.000284 -0.000000 -0.008777 -0.000001
                                 0.000387  0.000853 -0.000001 -0.000679  0.000000  0.005591 -0.006355  0.000000  0.000017 -0.000184
                                 0.090336 -0.019947 -0.045507  0.000254 -0.000000 -0.005311  0.001454  0.000000 -0.001234 -0.000339
                                -0.000000  0.000310  0.000165 -0.000000  0.370107 -0.087855 -0.127610 -0.004281 -0.007270  0.001445
                                -0.002186 -0.002789 -0.000787 -0.000530  0.000972 -0.000156 -0.000451 -0.000283  0.370130 -0.087855
                                -0.127616 -0.004269  0.007278  0.001446 -0.002182  0.002794 -0.000788 -0.000530 -0.000970 -0.000156
                                -0.000454  0.000283  0.393162 -0.089346 -0.130747  0.008835 -0.000008  0.002040  0.004580 -0.000004
                                -0.000473 -0.000583 -0.000002  0.000575  0.001198 -0.000000 -0.004397 -0.258193  0.000974 -0.009071
                                 0.016146 -0.000000 -0.020483 -0.001847 -0.000000  0.002807  0.004741 -0.000000  0.004872  0.000647
                                 0.000000 -0.000317 -0.000541 -0.000000  0.000629 -0.000000 -0.001104 -0.001085  0.000000  0.000254
                                -0.000000  0.000030 -0.000245  0.000000 -0.000000 -0.000175 -0.080626  0.031801  0.033060  0.003353
                                -0.000000  0.000255  0.002141  0.000000 -0.000415  0.000354 -0.000000 -0.000116 -0.000569 -0.000000

   9.1  1.98003    -0.599807    -0.000533 -0.058329  0.003242 -0.034628  0.010317 -0.000004 -0.418700 -0.003433 -0.000000  0.010763
                                -0.015741  0.000005  0.014148 -0.012237 -0.000000  0.001247  0.000204 -0.000000 -0.022566 -0.000007
                                 0.003519  0.001323  0.000000  0.000833 -0.000000 -0.003321  0.000148  0.000001 -0.000000 -0.000210
                                -0.691515  0.081647  0.233245 -0.001394  0.000000  0.000818 -0.009697 -0.000000 -0.009852 -0.005795
                                 0.000000 -0.000211 -0.000771  0.000000  0.108741 -0.002983 -0.019520 -0.001689 -0.002438 -0.002882
                                -0.000745 -0.005636 -0.007161 -0.001176  0.000736  0.000546 -0.000616  0.000976  0.108748 -0.003000
                                -0.019520 -0.001684  0.002440 -0.002882 -0.000734  0.005635 -0.007160 -0.001176 -0.000734  0.000544
                                -0.000619 -0.000976  0.118702 -0.018855 -0.032728  0.003066 -0.000003 -0.002762  0.001841 -0.000002
                                -0.007654 -0.001072 -0.000001 -0.001230  0.000751  0.000001  0.001040  0.054585  0.003636  0.068282
                                -0.080282 -0.000001  0.504536  0.001113  0.000000 -0.000843 -0.016916  0.000000 -0.009248 -0.005128
                                -0.000000  0.002395  0.000006  0.000000 -0.014643 -0.000000  0.008773 -0.001054 -0.000000 -0.000002
                                -0.000000  0.002972 -0.000249 -0.000000  0.000000  0.001620  0.031224 -0.005496 -0.005920 -0.001862
                                 0.000000  0.005257 -0.005820 -0.000000  0.016558 -0.001289 -0.000000 -0.002004  0.000987  0.000000

  10.1  1.00000    -0.180307     0.003291  0.218824 -0.001118  0.053166 -0.015883  0.000006  0.619657 -0.003948  0.000002 -0.001261
                                -0.008839  0.000003  0.001052  0.010366  0.000000 -0.001056 -0.000048  0.000000  0.015085 -0.000005
                                 0.000888  0.002585 -0.000000  0.000131 -0.000000  0.002316 -0.000013  0.000001  0.000000 -0.000171
                                 0.122282  0.030706 -0.044171  0.000431  0.000000 -0.020580 -0.000636 -0.000000 -0.039238  0.004878
                                 0.000000 -0.000420 -0.000055  0.000000 -0.084266  0.012923  0.002761  0.000729  0.001763  0.004900
                                 0.000588  0.000307  0.011551  0.000739 -0.000355 -0.001057  0.000212 -0.001643 -0.084272  0.012914
                                 0.002760  0.000725 -0.001765  0.004900  0.000589 -0.000310  0.011551  0.000739  0.000354 -0.001054
                                 0.000213  0.001645 -0.092941  0.000897 -0.001140 -0.002503  0.000002  0.004674 -0.005200  0.000005
                                 0.011105  0.001032  0.000001  0.001678 -0.000799 -0.000002 -0.002982 -0.109086  0.000863 -0.047211
                                -0.064152 -0.000003  0.728977 -0.002095 -0.000000  0.009698 -0.008009 -0.000000  0.030982 -0.002122
                                -0.000000  0.003853 -0.000210 -0.000000 -0.007197 -0.000000  0.011952 -0.000772  0.000000  0.000317
                                -0.000000  0.004557 -0.000181 -0.000000 -0.000000  0.002264  0.029708  0.003048  0.019642 -0.000209
                                -0.000000  0.007412 -0.008186  0.000000  0.017431 -0.000508 -0.000000 -0.003055  0.001130  0.000000

 Natural orbitals saved to record    2200.2 (Orbital set 3)

 Orbital spaces for UNO-CAS (Min. occupation: 0.020  Max. occupation: 1.980):

 Closed:        9
 Active:        1


 **********************************************************************************************************************************
 DATASETS  * FILE   NREC   LENGTH (MB)   RECORD NAMES
              1      19      139.54       500      610      700      900      950      970     1000      129      960     1100   
                                          VAR    BASINP    GEOM    SYMINP    ZMAT    AOBASIS   BASIS     P2S    ABASIS      S 
                                         1400     1410     1200     1210     1080     1600     1650     1300     1700   
                                           T        V       H0       H01     AOSYM     SMH    MOLCAS    ERIS     OPER   

              2       4        3.56       700     1000      520     2200   
                                         GEOM     BASIS   MCVARS     UHF  

 PROGRAMS   *        TOTAL       UHF       INT
 CPU TIMES  *         9.93      6.81      3.02
 REAL TIME  *        11.73 SEC
 DISK USED  *       557.13 MB      
[...]
           HX5              0.73708     0.02187    -0.00014
           HY5              0.00050    -0.01579     0.00000
           HZ5              0.22485     0.00667     0.00208
           OX6              0.00027     0.00001    -0.05993
           OY6             -0.00001     0.00020    -0.00000
           OZ6             -0.00026    -0.00001    -0.00995
           HX7             -0.00009    -0.00000     0.95501
           HY7              0.00003    -0.00088     0.00000
           HZ7              0.00373     0.00011     0.14542


 Normal Modes of imaginary frequencies

                                  1
 Wavenumbers [cm-1]         3139.25
 Intensities [km/mol]       5871.82
 Intensities [relative]      100.00
           CX1              0.00211
           CY1             -0.00000
           CZ1             -0.04594
           HX2             -0.02127
           HY2             -0.00000
           HZ2              0.96023
           HX3              0.00590
           HY3              0.01440
           HZ3              0.06750
           HX4              0.00590
           HY4             -0.01440
           HZ4              0.06750
           HX5             -0.02017
           HY5             -0.00000
           HZ5              0.07362
           OX6              0.00205
           OY6              0.00000
           OZ6             -0.04126
           HX7             -0.02796
           HY7             -0.00000
           HZ7              0.03351


 Normal Modes of low/zero frequencies

                                  1           2           3           4           5
 Wavenumbers [cm-1]            0.00        0.00        0.00        0.00        0.00
 Intensities [km/mol]          0.00        0.00        0.00        0.00        0.00
 Intensities [relative]        0.00        0.00        0.00        0.00        0.00
           CX1              0.11370    -0.00922    -0.08077     0.19464    -0.05432
           CY1              0.20435     0.03633     0.05412    -0.09614     0.03279
           CZ1             -0.03294     0.07747     0.12511     0.05811    -0.03541
           HX2              0.04964     0.10141    -0.09839     0.08534    -0.02265
           HY2              0.11177     0.03013     0.05346    -0.00540     0.12410
           HZ2             -0.03720     0.08482     0.12394     0.05086    -0.03331
           HX3              0.24070     0.02651     0.05541     0.24450    -0.12945
           HY3              0.15886     0.00463    -0.02070    -0.13024     0.05296
           HZ3              0.06560     0.04043     0.14158     0.04116    -0.11681
           HX4              0.01287    -0.09014    -0.20974     0.18942     0.00786
           HY4              0.15885     0.00462    -0.02071    -0.13025     0.05296
           HZ4             -0.07907     0.02399     0.12306     0.16449     0.02007
           HX5              0.12926    -0.03612    -0.07649     0.22120    -0.06202
           HY5              0.35972     0.10587     0.20890    -0.08608    -0.06948
           HZ5             -0.08418     0.16597     0.11102    -0.02931    -0.01007
           OX6             -0.01070     0.20564    -0.11499    -0.01763     0.00719
           OY6              0.01142     0.01756     0.03757     0.07692     0.21803
           OZ6             -0.03604     0.08282     0.12426     0.05283    -0.03388
           HX7             -0.01760     0.21756    -0.11688    -0.02941     0.01060
           HY7             -0.11804    -0.04428    -0.10155     0.05782     0.29989
           HZ7              0.01051     0.00242     0.13707     0.13226    -0.05690

                                  6           7
 Wavenumbers [cm-1]            0.00       40.18
 Intensities [km/mol]          0.00        0.00
 Intensities [relative]        0.00        0.00
           CX1              0.02712     0.00000
           CY1              0.07250     0.00020
           CZ1              0.05372    -0.00000
           HX2              0.00611     0.00000
           HY2             -0.01176    -0.08866
           HZ2              0.05233     0.00000
           HX3             -0.36661     0.22171
           HY3              0.31472    -0.11593
           HZ3              0.09486     0.04429
           HX4              0.42942    -0.22169
           HY4              0.31475    -0.11595
           HZ4              0.02979    -0.04429
           HX5              0.03225    -0.00001
           HY5             -0.37126     0.27782
           HZ5              0.03691    -0.00000
           OX6             -0.01369    -0.00000
           OY6             -0.04531    -0.05150
           OZ6              0.05271    -0.00000
           HX7             -0.01595    -0.00000
           HY7              0.36309     0.85783
           HZ7              0.06798     0.00000


 FREQUENCIES * CALCULATION OF THERMODYNAMICAL PROPERTIES

 Temperature   298.150 [K]  Pressure   1.00000 [atm]
 Atom  1: C         Mass  12.01100
 Atom  2: H         Mass   1.00794
 Atom  3: H         Mass   1.00794
 Atom  4: H         Mass   1.00794
 Atom  5: H         Mass   1.00794
 Atom  6: O         Mass  15.99940
 Atom  7: H         Mass   1.00794

 Molecular Mass:    33.05010 [a.u.]
 Moments of Inertia         194.61006   197.58211    14.68780 [a.u.]
 Point Group C1    Order of principal axis 1
 Rotational Symmetry factor  1.0
 Rotational Temperatures      0.44505     0.43836     5.89688 [K]
 Rotational Constants         9.27349     9.13399   122.87164 [GHz]
 WARNING:    1 Imaginary Frequencies ignored.

 WARNING: Using the   3 Vibrational Modes  with wavenumbers below 1000 [1/cm]
 may cause significant error at T =     298.150 [K]: Use 0.5*RT instead.

 Vibrational Temperatures [K]    568.12   593.09   819.27  1382.25  1772.52
                                1887.10  2179.31  2235.22  2265.79  4593.29
                                4772.68  4772.70  5884.49

 Zero-Point vibrational Energy      140.207 [kJ/Mol]
                                     33.510 [kcal/Mol]

 Electronic Energy at 0 [K]:                      -115.588037 [H]
 Electronic Energy + Zero-Point correction:       -115.534635 [H]
 Electronic Energy at     298.150 [K]:            -115.530932 [H]
 Enthalpy H at            298.150 [K]:            -115.529988 [H]
 Free Enthalpy G at       298.150 [K]:            -115.559144 [H]

 Partition Function  Z                 log10(Z)          ln(Z)
 Electronic      0.200000D+01          0.301030          0.693147
 Translation     0.746843D+07          6.873230         15.826196
 Rotation        0.850734D+04          3.929794          9.048685
 Vibration       0.147735D+01          0.169482          0.390247
 Vibration    1  0.117475D+01          0.069944          0.161053
 Vibration    2  0.115848D+01          0.063888          0.147108
 Vibration    3  0.106845D+01          0.028755          0.066211
 Total           0.187731D+12         11.273536         25.568028

                       H(T)-H(0)              Cv                 S
                       [kJ/Mol]          [J/Mol K]          [J/Mol K] 
 Electronic               0.000              0.000              5.763
 Translation              3.718             12.472            152.373
 Rotation                 3.718             12.472             87.707
 Vibration                2.284             20.764             10.907
 Vibration  1             3.187              6.197              4.108
 Vibration  2             3.247              6.040              3.844
 Vibration  3             3.872              4.592              2.114
 Volume (RT)              2.479              0.000              0.000
 Total                   12.200             45.708            256.750

 Thermal energies including ZPE:

 H(T)-E(0)              152.407 kJ/Mol
 U(T)-E(0)              149.928 kJ/Mol

                       H(T)-H(0)              Cv                 S
                       [kcal/Mol]        [cal/Mol K]        [cal/Mol K] 
 Electronic               0.000              0.000              1.377
 Translation              0.889              2.981             36.418
 Rotation                 0.889              2.981             20.963
 Vibration                0.546              4.963              2.607
 Vibration  1             0.762              1.481              0.982
 Vibration  2             0.776              1.444              0.919
 Vibration  3             0.925              1.097              0.505
 Volume (RT)              0.592              0.000              0.000
 Total                    2.916             10.924             61.365

 Thermal energies including ZPE:

 H(T)-E(0)               36.426 kcal/Mol
 U(T)-E(0)               35.834 kcal/Mol
 Frequency information read from record  5400.2

 Dump information in style MOLDEN to test.molden                                                                     

 Molecular orbitals read from record     2200.2  Type=UHF/NATURAL (state 1.1)
 Occupation numbers read from record     2200.2  Type=UHF/NATURAL (state 1.1)
 Orbital energies read from record       2200.2  Type=UHF/NATURAL (state 1.1)
 Redundancy group numbers read from rec  2200.2  Type=UHF/ALPHA (state 1.1)
 
 DUMP ORBITAL  1.1 AS ORBITAL    1  occ=    2.0000  eig=  -20.5690  GROUP=   1
 DUMP ORBITAL  2.1 AS ORBITAL    2  occ=    2.0000  eig=  -11.2309  GROUP=   1
 DUMP ORBITAL  7.1 AS ORBITAL    3  occ=    1.9997  eig=   -0.5030  GROUP=   1
 DUMP ORBITAL  4.1 AS ORBITAL    4  occ=    1.9996  eig=   -0.6420  GROUP=   1
 DUMP ORBITAL  5.1 AS ORBITAL    5  occ=    1.9996  eig=   -0.5800  GROUP=   1
 DUMP ORBITAL  6.1 AS ORBITAL    6  occ=    1.9996  eig=   -0.5769  GROUP=   1
 DUMP ORBITAL  3.1 AS ORBITAL    7  occ=    1.9992  eig=   -1.2791  GROUP=   1
 DUMP ORBITAL  8.1 AS ORBITAL    8  occ=    1.9990  eig=   -0.9565  GROUP=   1
 DUMP ORBITAL  9.1 AS ORBITAL    9  occ=    1.9800  eig=   -0.5998  GROUP=   1
 DUMP ORBITAL 10.1 AS ORBITAL   10  occ=    1.0000  eig=   -0.1803  GROUP=   1
 DUMP ORBITAL 11.1 AS ORBITAL   11  occ=    0.0200  eig=    0.6824  GROUP=   0
 DUMP ORBITAL 12.1 AS ORBITAL   12  occ=    0.0010  eig=    0.7894  GROUP=   0
 DUMP ORBITAL 23.1 AS ORBITAL   13  occ=    0.0002  eig=    0.6411  GROUP=   0
 DUMP ORBITAL 28.1 AS ORBITAL   14  occ=    0.0002  eig=    0.8292  GROUP=   0
 DUMP ORBITAL 13.1 AS ORBITAL   15  occ=    0.0002  eig=    0.1712  GROUP=   0
 DUMP ORBITAL 21.1 AS ORBITAL   16  occ=    0.0002  eig=    0.5878  GROUP=   0
 DUMP ORBITAL 24.1 AS ORBITAL   17  occ=    0.0002  eig=    0.6483  GROUP=   0
 DUMP ORBITAL 15.1 AS ORBITAL   18  occ=    0.0001  eig=    0.2166  GROUP=   0
 DUMP ORBITAL 16.1 AS ORBITAL   19  occ=    0.0001  eig=    0.2199  GROUP=   0
 DUMP ORBITAL 41.1 AS ORBITAL   20  occ=    0.0001  eig=    1.3755  GROUP=   0
 DUMP ORBITAL 22.1 AS ORBITAL   21  occ=    0.0001  eig=    0.6366  GROUP=   0
 DUMP ORBITAL 45.1 AS ORBITAL   22  occ=    0.0001  eig=    1.5733  GROUP=   0
 DUMP ORBITAL 53.1 AS ORBITAL   23  occ=    0.0001  eig=    2.4203  GROUP=   0
 DUMP ORBITAL 17.1 AS ORBITAL   24  occ=    0.0001  eig=    0.3512  GROUP=   0
 DUMP ORBITAL 18.1 AS ORBITAL   25  occ=    0.0000  eig=    0.3660  GROUP=   0
 DUMP ORBITAL 19.1 AS ORBITAL   26  occ=    0.0000  eig=    0.4146  GROUP=   0
 DUMP ORBITAL 25.1 AS ORBITAL   27  occ=    0.0000  eig=    0.6636  GROUP=   0
 DUMP ORBITAL 29.1 AS ORBITAL   28  occ=    0.0001  eig=    0.8406  GROUP=   0
 DUMP ORBITAL 27.1 AS ORBITAL   29  occ=    0.0000  eig=    0.8033  GROUP=   0
 DUMP ORBITAL 47.1 AS ORBITAL   30  occ=    0.0000  eig=    1.7892  GROUP=   0
 DUMP ORBITAL 14.1 AS ORBITAL   31  occ=    0.0000  eig=    0.2063  GROUP=   0
 DUMP ORBITAL 37.1 AS ORBITAL   32  occ=    0.0000  eig=    1.1999  GROUP=   0
 DUMP ORBITAL 56.1 AS ORBITAL   33  occ=    0.0000  eig=    2.5265  GROUP=   0
 DUMP ORBITAL 20.1 AS ORBITAL   34  occ=    0.0000  eig=    0.5342  GROUP=   0
 DUMP ORBITAL 38.1 AS ORBITAL   35  occ=    0.0000  eig=    1.2652  GROUP=   0
 DUMP ORBITAL 42.1 AS ORBITAL   36  occ=    0.0000  eig=    1.5168  GROUP=   0
 DUMP ORBITAL 43.1 AS ORBITAL   37  occ=    0.0000  eig=    1.5181  GROUP=   0
 DUMP ORBITAL 48.1 AS ORBITAL   38  occ=    0.0000  eig=    1.9923  GROUP=   0
 DUMP ORBITAL 52.1 AS ORBITAL   39  occ=    0.0000  eig=    2.2155  GROUP=   0
 DUMP ORBITAL 55.1 AS ORBITAL   40  occ=    0.0000  eig=    2.5036  GROUP=   0
 DUMP ORBITAL 58.1 AS ORBITAL   41  occ=    0.0000  eig=    2.8330  GROUP=   0
 DUMP ORBITAL 61.1 AS ORBITAL   42  occ=    0.0000  eig=    3.0215  GROUP=   0
 DUMP ORBITAL 26.1 AS ORBITAL   43  occ=    0.0000  eig=    0.7312  GROUP=   0
 DUMP ORBITAL 30.1 AS ORBITAL   44  occ=    0.0000  eig=    0.9053  GROUP=   0
 DUMP ORBITAL 31.1 AS ORBITAL   45  occ=    0.0000  eig=    0.9112  GROUP=   0
 DUMP ORBITAL 32.1 AS ORBITAL   46  occ=    0.0000  eig=    1.0214  GROUP=   0
 DUMP ORBITAL 33.1 AS ORBITAL   47  occ=    0.0000  eig=    1.0470  GROUP=   0
 DUMP ORBITAL 34.1 AS ORBITAL   48  occ=    0.0000  eig=    1.0641  GROUP=   0
 DUMP ORBITAL 35.1 AS ORBITAL   49  occ=    0.0000  eig=    1.1456  GROUP=   0
 DUMP ORBITAL 36.1 AS ORBITAL   50  occ=    0.0000  eig=    1.1487  GROUP=   0
 DUMP ORBITAL 39.1 AS ORBITAL   51  occ=    0.0000  eig=    1.3220  GROUP=   0
 DUMP ORBITAL 40.1 AS ORBITAL   52  occ=    0.0000  eig=    1.3439  GROUP=   0
 DUMP ORBITAL 44.1 AS ORBITAL   53  occ=    0.0000  eig=    1.5690  GROUP=   0
 DUMP ORBITAL 46.1 AS ORBITAL   54  occ=    0.0000  eig=    1.6241  GROUP=   0
 DUMP ORBITAL 49.1 AS ORBITAL   55  occ=    0.0000  eig=    2.0701  GROUP=   0
 DUMP ORBITAL 50.1 AS ORBITAL   56  occ=    0.0000  eig=    2.0954  GROUP=   0
 DUMP ORBITAL 51.1 AS ORBITAL   57  occ=    0.0000  eig=    2.1813  GROUP=   0
 DUMP ORBITAL 54.1 AS ORBITAL   58  occ=    0.0000  eig=    2.4474  GROUP=   0
 DUMP ORBITAL 57.1 AS ORBITAL   59  occ=    0.0000  eig=    2.6660  GROUP=   0
 DUMP ORBITAL 59.1 AS ORBITAL   60  occ=    0.0000  eig=    2.9316  GROUP=   0
 DUMP ORBITAL 60.1 AS ORBITAL   61  occ=    0.0000  eig=    2.9572  GROUP=   0
 DUMP ORBITAL 62.1 AS ORBITAL   62  occ=    0.0000  eig=    3.1100  GROUP=   0
 DUMP ORBITAL 63.1 AS ORBITAL   63  occ=    0.0000  eig=    3.1178  GROUP=   0
 DUMP ORBITAL 64.1 AS ORBITAL   64  occ=    0.0000  eig=    3.1327  GROUP=   0
 DUMP ORBITAL 65.1 AS ORBITAL   65  occ=    0.0000  eig=    3.1560  GROUP=   0
 DUMP ORBITAL 66.1 AS ORBITAL   66  occ=    0.0000  eig=    3.1676  GROUP=   0
 DUMP ORBITAL 67.1 AS ORBITAL   67  occ=    0.0000  eig=    3.3455  GROUP=   0
 DUMP ORBITAL 68.1 AS ORBITAL   68  occ=    0.0000  eig=    3.3508  GROUP=   0
 DUMP ORBITAL 69.1 AS ORBITAL   69  occ=    0.0000  eig=    3.3797  GROUP=   0
 DUMP ORBITAL 70.1 AS ORBITAL   70  occ=    0.0000  eig=    3.4749  GROUP=   0
 DUMP ORBITAL 71.1 AS ORBITAL   71  occ=    0.0000  eig=    3.4766  GROUP=   0
 DUMP ORBITAL 72.1 AS ORBITAL   72  occ=    0.0000  eig=    3.5584  GROUP=   0
 DUMP ORBITAL 73.1 AS ORBITAL   73  occ=    0.0000  eig=    3.5971  GROUP=   0
 DUMP ORBITAL 74.1 AS ORBITAL   74  occ=    0.0000  eig=    3.6087  GROUP=   0
 DUMP ORBITAL 75.1 AS ORBITAL   75  occ=    0.0000  eig=    3.6965  GROUP=   0
 DUMP ORBITAL 76.1 AS ORBITAL   76  occ=    0.0000  eig=    3.7252  GROUP=   0
 DUMP ORBITAL 77.1 AS ORBITAL   77  occ=    0.0000  eig=    3.7469  GROUP=   0
 DUMP ORBITAL 78.1 AS ORBITAL   78  occ=    0.0000  eig=    3.7561  GROUP=   0
 DUMP ORBITAL 79.1 AS ORBITAL   79  occ=    0.0000  eig=    3.8049  GROUP=   0
 DUMP ORBITAL 80.1 AS ORBITAL   80  occ=    0.0000  eig=    3.8434  GROUP=   0
 DUMP ORBITAL 81.1 AS ORBITAL   81  occ=    0.0000  eig=    3.8613  GROUP=   0
 DUMP ORBITAL 82.1 AS ORBITAL   82  occ=    0.0000  eig=    3.9809  GROUP=   0
 DUMP ORBITAL 83.1 AS ORBITAL   83  occ=    0.0000  eig=    4.0305  GROUP=   0
 DUMP ORBITAL 84.1 AS ORBITAL   84  occ=    0.0000  eig=    4.0349  GROUP=   0
 DUMP ORBITAL 85.1 AS ORBITAL   85  occ=    0.0000  eig=    4.0992  GROUP=   0
 DUMP ORBITAL 86.1 AS ORBITAL   86  occ=    0.0000  eig=    4.1223  GROUP=   0
 DUMP ORBITAL 87.1 AS ORBITAL   87  occ=    0.0000  eig=    4.1614  GROUP=   0
 DUMP ORBITAL 88.1 AS ORBITAL   88  occ=    0.0000  eig=    4.1754  GROUP=   0
 DUMP ORBITAL 89.1 AS ORBITAL   89  occ=    0.0000  eig=    4.1879  GROUP=   0
 DUMP ORBITAL 90.1 AS ORBITAL   90  occ=    0.0000  eig=    4.2395  GROUP=   0
 DUMP ORBITAL 91.1 AS ORBITAL   91  occ=    0.0000  eig=    4.2614  GROUP=   0
 DUMP ORBITAL 92.1 AS ORBITAL   92  occ=    0.0000  eig=    4.3001  GROUP=   0
 DUMP ORBITAL 93.1 AS ORBITAL   93  occ=    0.0000  eig=    4.3786  GROUP=   0
 DUMP ORBITAL 94.1 AS ORBITAL   94  occ=    0.0000  eig=    4.4164  GROUP=   0
 DUMP ORBITAL 95.1 AS ORBITAL   95  occ=    0.0000  eig=    4.4302  GROUP=   0
 DUMP ORBITAL 96.1 AS ORBITAL   96  occ=    0.0000  eig=    4.5442  GROUP=   0
 DUMP ORBITAL 97.1 AS ORBITAL   97  occ=    0.0000  eig=    4.5657  GROUP=   0
 DUMP ORBITAL 98.1 AS ORBITAL   98  occ=    0.0000  eig=    4.6820  GROUP=   0
 DUMP ORBITAL 99.1 AS ORBITAL   99  occ=    0.0000  eig=    4.7810  GROUP=   0
 DUMP ORBITAL100.1 AS ORBITAL  100  occ=    0.0000  eig=    4.8462  GROUP=   0
 DUMP ORBITAL101.1 AS ORBITAL  101  occ=    0.0000  eig=    4.9633  GROUP=   0
 DUMP ORBITAL102.1 AS ORBITAL  102  occ=    0.0000  eig=    5.0410  GROUP=   0
 DUMP ORBITAL103.1 AS ORBITAL  103  occ=    0.0000  eig=    5.1558  GROUP=   0
 DUMP ORBITAL104.1 AS ORBITAL  104  occ=    0.0000  eig=    5.2529  GROUP=   0
 DUMP ORBITAL105.1 AS ORBITAL  105  occ=    0.0000  eig=    5.2738  GROUP=   0
 DUMP ORBITAL106.1 AS ORBITAL  106  occ=    0.0000  eig=    5.3769  GROUP=   0
 DUMP ORBITAL107.1 AS ORBITAL  107  occ=    0.0000  eig=    5.4087  GROUP=   0
 DUMP ORBITAL108.1 AS ORBITAL  108  occ=    0.0000  eig=    5.4554  GROUP=   0
 DUMP ORBITAL109.1 AS ORBITAL  109  occ=    0.0000  eig=    5.4840  GROUP=   0
 DUMP ORBITAL110.1 AS ORBITAL  110  occ=    0.0000  eig=    5.4855  GROUP=   0
 DUMP ORBITAL111.1 AS ORBITAL  111  occ=    0.0000  eig=    5.5600  GROUP=   0
 DUMP ORBITAL112.1 AS ORBITAL  112  occ=    0.0000  eig=    5.7969  GROUP=   0
 DUMP ORBITAL113.1 AS ORBITAL  113  occ=    0.0000  eig=    5.8149  GROUP=   0
 DUMP ORBITAL114.1 AS ORBITAL  114  occ=    0.0000  eig=    5.9268  GROUP=   0
 DUMP ORBITAL115.1 AS ORBITAL  115  occ=    0.0000  eig=    6.0929  GROUP=   0
 DUMP ORBITAL116.1 AS ORBITAL  116  occ=    0.0000  eig=    6.1346  GROUP=   0
 DUMP ORBITAL117.1 AS ORBITAL  117  occ=    0.0000  eig=    6.1493  GROUP=   0
 DUMP ORBITAL118.1 AS ORBITAL  118  occ=    0.0000  eig=    6.4240  GROUP=   0
 DUMP ORBITAL119.1 AS ORBITAL  119  occ=    0.0000  eig=    6.4690  GROUP=   0
 DUMP ORBITAL120.1 AS ORBITAL  120  occ=    0.0000  eig=    6.8791  GROUP=   0
 DUMP ORBITAL121.1 AS ORBITAL  121  occ=    0.0000  eig=    6.9405  GROUP=   0
 DUMP ORBITAL122.1 AS ORBITAL  122  occ=    0.0000  eig=    7.0583  GROUP=   0
 DUMP ORBITAL123.1 AS ORBITAL  123  occ=    0.0000  eig=    7.1332  GROUP=   0
 DUMP ORBITAL124.1 AS ORBITAL  124  occ=    0.0000  eig=    7.1834  GROUP=   0
 DUMP ORBITAL125.1 AS ORBITAL  125  occ=    0.0000  eig=    7.2278  GROUP=   0
 DUMP ORBITAL126.1 AS ORBITAL  126  occ=    0.0000  eig=    7.4396  GROUP=   0
 DUMP ORBITAL127.1 AS ORBITAL  127  occ=    0.0000  eig=    7.7881  GROUP=   0
 DUMP ORBITAL128.1 AS ORBITAL  128  occ=    0.0000  eig=    7.8664  GROUP=   0
 DUMP ORBITAL129.1 AS ORBITAL  129  occ=    0.0000  eig=   11.9668  GROUP=   0
 DUMP ORBITAL130.1 AS ORBITAL  130  occ=    0.0000  eig=   14.0141  GROUP=   0

 Total charge:      19.000000
 Frequency information read from record  5400.2

 **********************************************************************************************************************************

 UHF/cc-pVTZ energy=   -115.588036917305

       OPTG(UHF)        UHF-SCF 
   -115.58803692   -115.58803692
 **********************************************************************************************************************************
 Molpro calculation terminated
 Variable memory released
