    nwchem, len=6
      freq, len=4
 argument  1 = freq
  Unable to open freq --- appending .nw
                                         
                                         


              Northwest Computational Chemistry Package (NWChem) 6.0
              ------------------------------------------------------


                    Environmental Molecular Sciences Laboratory
                       Pacific Northwest National Laboratory
                                Richland, WA 99352

                              Copyright (c) 1994-2010
                       Pacific Northwest National Laboratory
                            Battelle Memorial Institute

             NWChem is an open-source computational chemistry package
                        distributed under the terms of the
                      Educational Community License (ECL) 2.0
             A copy of the license is included with this distribution
                              in the LICENSE.TXT file

                                  ACKNOWLEDGMENT
                                  --------------

            This software and its documentation were developed at the
            EMSL at Pacific Northwest National Laboratory, a multiprogram
            national laboratory, operated for the U.S. Department of Energy
            by Battelle under Contract Number DE-AC05-76RL01830. Support
            for this work was provided by the Department of Energy Office
            of Biological and Environmental Research, Office of Basic
            Energy Sciences, and the Office of Advanced Scientific Computing.


           Job information
           ---------------

    hostname      = clovis1
    program       = nwchem
    date          = Sat May  4 09:05:43 2013

    compiled      = Tue_Nov_09_10:54:15_2010
    source        = /home/d3y133/nwchem-releases/nwchem-6.0-linux
    nwchem branch = 6.0
    input         = freq.nw
    prefix        = hcn_freq.
    data base     = ./hcn_freq.db
    status        = startup
    nproc         =        1
    time left     =     -1s



           Memory information
           ------------------

    heap     =   13107201 doubles =    100.0 Mbytes
    stack    =   13107201 doubles =    100.0 Mbytes
    global   =   26214400 doubles =    200.0 Mbytes (distinct from heap & stack)
    total    =   52428802 doubles =    400.0 Mbytes
    verify   = yes
    hardfail = no 


           Directory information
           ---------------------

  0 permanent = .
  0 scratch   = .




                                NWChem Input Module
                                -------------------



 Scaling coordinates for geometry "geometry" by  1.889725989
 (inverse scale =  0.529177249)

 ORDER OF PRIMARY AXIS IS BEING SET TO 4
 C4V symmetry detected

          ------
          auto-z
          ------
  autoz: insufficient variables                     2                    3
     1 autoz failed with cvr_scaling = 1.2 changing to 1.3
  autoz: insufficient variables                     2                    3
     2 autoz failed with cvr_scaling = 1.3 changing to 1.4
  autoz: insufficient variables                     2                    3
     3 autoz failed with cvr_scaling = 1.4 changing to 1.5
  autoz: insufficient variables                     2                    3
     4 autoz failed with cvr_scaling = 1.5 changing to 1.6
  autoz: insufficient variables                     2                    3
     5 autoz failed with cvr_scaling = 1.6 changing to 1.7
  autoz: insufficient variables                     2                    3

 AUTOZ failed to generate good internal coordinates.
 Cartesian coordinates will be used in optimizations.



                             Geometry "geometry" -> ""
                             -------------------------

 Output coordinates in angstroms (scale by  1.889725989 to convert to a.u.)

  No.       Tag          Charge          X              Y              Z
 ---- ---------------- ---------- -------------- -------------- --------------
    1 C                    6.0000     0.00000000     0.00000000    -0.51869829
    2 N                    7.0000     0.00000000     0.00000000     0.67415671
    3 H                    1.0000     0.00000000     0.00000000    -1.60690729

      Atomic Mass 
      ----------- 

      C                 12.000000
      N                 14.003070
      H                  1.007825


 Effective nuclear repulsion energy (a.u.)      23.1737481769

            Nuclear Dipole moment (a.u.) 
            ----------------------------
        X                 Y               Z
 ---------------- ---------------- ----------------
     0.0000000000     0.0000000000     0.0000000000

      Symmetry information
      --------------------

 Group name             C4v       
 Group number             18
 Group order               8
 No. of unique centers     3

      Symmetry unique atoms

     1    2    3


            XYZ format geometry
            -------------------
     3
 geometry
 C                     0.00000000     0.00000000    -0.51869829
 N                     0.00000000     0.00000000     0.67415671
 H                     0.00000000     0.00000000    -1.60690729

 ==============================================================================
                                internuclear distances
 ------------------------------------------------------------------------------
       center one      |      center two      | atomic units |  angstroms
 ------------------------------------------------------------------------------
    2 N                |   1 C                |     2.25417  |     1.19286
    3 H                |   1 C                |     2.05642  |     1.08821
 ------------------------------------------------------------------------------
                         number of included internuclear distances:          2
 ==============================================================================



 ==============================================================================
                                 internuclear angles
 ------------------------------------------------------------------------------
        center 1       |       center 2       |       center 3       |  degrees
 ------------------------------------------------------------------------------
    2 N                |   1 C                |   3 H                |   180.00
 ------------------------------------------------------------------------------
                            number of included internuclear angles:          1
 ==============================================================================



  library name resolved from: .nwchemrc
  library file name is: </apps/nwchem/6.0/usr.local.lib.nwchem/libraries/>
  


 Summary of "ao basis" -> "" (cartesian)
 ------------------------------------------------------------------------------
       Tag                 Description            Shells   Functions and Types
 ---------------- ------------------------------  ------  ---------------------
 *                           sto-3g                   on all atoms 


                       HCN : STO-3G B3LYP freq /   GEOM g09
                       ------------------------------------


                   NWChem Nuclear Hessian and Frequency Analysis
                   ---------------------------------------------



                              NWChem Analytic Hessian
                              -----------------------

  itol2e modified to match energy
  convergence criterion.

                                 NWChem DFT Module
                                 -----------------


                       HCN : STO-3G B3LYP freq /   GEOM g09


                      Basis "ao basis" -> "ao basis" (cartesian)
                      -----
  C (Carbon)
  ----------
            Exponent  Coefficients 
       -------------- ---------------------------------------------------------
  1 S  7.16168370E+01  0.154329
  1 S  1.30450960E+01  0.535328
  1 S  3.53051220E+00  0.444635

  2 S  2.94124940E+00 -0.099967
  2 S  6.83483100E-01  0.399513
  2 S  2.22289900E-01  0.700115

  3 P  2.94124940E+00  0.155916
  3 P  6.83483100E-01  0.607684
  3 P  2.22289900E-01  0.391957

  N (Nitrogen)
  ------------
            Exponent  Coefficients 
       -------------- ---------------------------------------------------------
  1 S  9.91061690E+01  0.154329
  1 S  1.80523120E+01  0.535328
  1 S  4.88566020E+00  0.444635

  2 S  3.78045590E+00 -0.099967
  2 S  8.78496600E-01  0.399513
  2 S  2.85714400E-01  0.700115

  3 P  3.78045590E+00  0.155916
  3 P  8.78496600E-01  0.607684
  3 P  2.85714400E-01  0.391957

  H (Hydrogen)
  ------------
            Exponent  Coefficients 
       -------------- ---------------------------------------------------------
  1 S  3.42525091E+00  0.154329
  1 S  6.23913730E-01  0.535328
  1 S  1.68855400E-01  0.444635



 Summary of "ao basis" -> "ao basis" (cartesian)
 ------------------------------------------------------------------------------
       Tag                 Description            Shells   Functions and Types
 ---------------- ------------------------------  ------  ---------------------
 C                           sto-3g                  3        5   2s1p
 N                           sto-3g                  3        5   2s1p
 H                           sto-3g                  1        1   1s


  Caching 1-el integrals 
  itol2e modified to match energy
  convergence criterion.

            General Information
            -------------------
          SCF calculation type: DFT
          Wavefunction type:  closed shell.
          No. of atoms     :     3
          No. of electrons :    14
           Alpha electrons :     7
            Beta electrons :     7
          Charge           :     0
          Spin multiplicity:     1
          Use of symmetry is: off; symmetry adaption is: off
          Maximum number of iterations:  30
          AO basis - number of functions:    11
                     number of shells:     7
          Convergence on energy requested: 1.00D-07
          Convergence on density requested: 1.00D-05
          Convergence on gradient requested: 1.00D-06

              XC Information
              --------------
                         B3LYP Method XC Potential
                     Hartree-Fock (Exact) Exchange  0.200          
                        Slater Exchange Functional  0.800 local    
                    Becke 1988 Exchange Functional  0.720 non-local
              Lee-Yang-Parr Correlation Functional  0.810          
                  VWN I RPA Correlation Functional  0.190 local    

             Grid Information
             ----------------
          Grid used for XC integration:  fine      
          Radial quadrature: Mura-Knowles        
          Angular quadrature: Lebedev. 
          Tag              B.-S. Rad. Rad. Pts. Rad. Cut. Ang. Pts.
          ---              ---------- --------- --------- ---------
          C                   0.70       70           6.0       590
          N                   0.65       70           7.0       590
          H                   0.35       60           7.0       590
          Grid pruning is: on 
          Number of quadrature shells:   200
          Spatial weights used:  Erf1

          Convergence Information
          -----------------------
          Convergence aids based upon iterative change in 
          total energy or number of iterations. 
          Levelshifting, if invoked, occurs when the 
          HOMO/LUMO gap drops below (HL_TOL): 1.00D-02
          DIIS, if invoked, will attempt to extrapolate 
          using up to (NFOCK): 10 stored Fock matrices.

                    Damping( 0%)  Levelshifting(0.5)       DIIS
                  --------------- ------------------- ---------------
          dE  on:    start            ASAP                start   
          dE off:    2 iters         30 iters            30 iters 


      Screening Tolerance Information
      -------------------------------
          Density screening/tol_rho: 1.00D-11
          AO Gaussian exp screening on grid/accAOfunc:  16
          CD Gaussian exp screening on grid/accCDfunc:  20
          XC Gaussian exp screening on grid/accXCfunc:  20
          Schwarz screening/accCoul: 1.00D-08


      Superposition of Atomic Density Guess
      -------------------------------------

 Sum of atomic energies:         -91.26103905

      Non-variational initial energy
      ------------------------------

 Total energy =     -91.486481
 1-e energy   =    -170.735928
 2-e energy   =      56.075698
 HOMO         =      -0.255082
 LUMO         =       0.252153

   Time after variat. SCF:      0.0
   Time prior to 1st pass:      0.0

 Grid_pts file          = ./hcn_freq.gridpts.0
 Record size in doubles =  12289        No. of grid_pts per rec  =   3070
 Max. records in memory =     44        Max. recs in file   =  16804522


           Memory utilization after 1st SCF pass: 
           Heap Space remaining (MW):       12.57            12565488
          Stack Space remaining (MW):       13.11            13107025

   convergence    iter        energy       DeltaE   RMS-Dens  Diis-err    time
 ---------------- ----- ----------------- --------- --------- ---------  ------
 d= 0,ls=0.0,diis     1    -92.0908030235 -1.15D+02  1.86D-01  7.80D-01     0.3
 d= 0,ls=0.0,diis     2    -91.5404159336  5.50D-01  1.45D-01  4.35D+00     0.5
 d= 0,ls=0.0,diis     3    -92.2044200814 -6.64D-01  4.59D-03  4.29D-03     0.7
 d= 0,ls=0.0,diis     4    -92.2050460449 -6.26D-04  7.23D-04  3.09D-05     0.9
 d= 0,ls=0.0,diis     5    -92.2050526394 -6.59D-06  1.11D-04  3.17D-06     1.1
 d= 0,ls=0.0,diis     6    -92.2050530392 -4.00D-07  3.31D-05  4.06D-07     1.3
 d= 0,ls=0.0,diis     7    -92.2050530896 -5.04D-08  3.96D-06  4.55D-09     1.5


         Total DFT energy =      -92.205053089589
      One electron energy =     -170.338930581671
           Coulomb energy =       67.546668904726
    Exchange-Corr. energy =      -12.586539589537
 Nuclear repulsion energy =       23.173748176893

 Numeric. integr. density =       13.999999953342

     Total iterative time =      1.4s



                       DFT Final Molecular Orbital Analysis
                       ------------------------------------

 Vector    1  Occ=2.000000D+00  E=-1.417024D+01
              MO Center= -5.2D-14, -1.4D-14,  6.7D-01, r^2= 2.0D-02
   Bfn.  Coefficient  Atom+Function         Bfn.  Coefficient  Atom+Function  
  ----- ------------  ---------------      ----- ------------  ---------------
     6      0.992976  2 N  s          

 Vector    2  Occ=2.000000D+00  E=-1.004640D+01
              MO Center= -1.0D-14, -5.3D-14, -5.2D-01, r^2= 2.8D-02
   Bfn.  Coefficient  Atom+Function         Bfn.  Coefficient  Atom+Function  
  ----- ------------  ---------------      ----- ------------  ---------------
     1     -0.991497  1 C  s          

 Vector    3  Occ=2.000000D+00  E=-8.734742D-01
              MO Center= -5.0D-11,  1.4D-12,  2.0D-01, r^2= 6.0D-01
   Bfn.  Coefficient  Atom+Function         Bfn.  Coefficient  Atom+Function  
  ----- ------------  ---------------      ----- ------------  ---------------
     7      0.630730  2 N  s                  2      0.355056  1 C  s          
    10     -0.246662  2 N  pz                 6     -0.199795  2 N  s          
     5      0.196068  1 C  pz                 1     -0.162413  1 C  s          

 Vector    4  Occ=2.000000D+00  E=-5.608365D-01
              MO Center= -1.6D-11,  6.8D-12, -1.1D+00, r^2= 8.6D-01
   Bfn.  Coefficient  Atom+Function         Bfn.  Coefficient  Atom+Function  
  ----- ------------  ---------------      ----- ------------  ---------------
     2     -0.482027  1 C  s                 11     -0.450365  3 H  s          
     5      0.398712  1 C  pz                 7      0.269746  2 N  s          

 Vector    5  Occ=2.000000D+00  E=-3.042427D-01
              MO Center= -1.2D-10, -1.3D-10,  7.7D-01, r^2= 8.3D-01
   Bfn.  Coefficient  Atom+Function         Bfn.  Coefficient  Atom+Function  
  ----- ------------  ---------------      ----- ------------  ---------------
     7      0.725509  2 N  s                 10      0.643417  2 N  pz         
     5     -0.299709  1 C  pz                 2     -0.269900  1 C  s          
    11      0.169031  3 H  s          

 Vector    6  Occ=2.000000D+00  E=-2.983048D-01
              MO Center=  1.5D-10, -1.0D-11,  1.0D-01, r^2= 9.6D-01
   Bfn.  Coefficient  Atom+Function         Bfn.  Coefficient  Atom+Function  
  ----- ------------  ---------------      ----- ------------  ---------------
     8      0.637391  2 N  px                 3      0.616522  1 C  px         

 Vector    7  Occ=2.000000D+00  E=-2.983048D-01
              MO Center=  9.2D-12,  1.4D-10,  1.0D-01, r^2= 9.6D-01
   Bfn.  Coefficient  Atom+Function         Bfn.  Coefficient  Atom+Function  
  ----- ------------  ---------------      ----- ------------  ---------------
     9     -0.637391  2 N  py                 4     -0.616522  1 C  py         

 Vector    8  Occ=0.000000D+00  E= 1.119170D-01
              MO Center= -1.6D-12,  1.1D-11,  4.4D-02, r^2= 1.0D+00
   Bfn.  Coefficient  Atom+Function         Bfn.  Coefficient  Atom+Function  
  ----- ------------  ---------------      ----- ------------  ---------------
     4      0.824992  1 C  py                 9     -0.809226  2 N  py         

 Vector    9  Occ=0.000000D+00  E= 1.119170D-01
              MO Center= -1.2D-11, -1.7D-12,  4.4D-02, r^2= 1.0D+00
   Bfn.  Coefficient  Atom+Function         Bfn.  Coefficient  Atom+Function  
  ----- ------------  ---------------      ----- ------------  ---------------
     3      0.824992  1 C  px                 8     -0.809226  2 N  px         

 Vector   10  Occ=0.000000D+00  E= 2.817185D-01
              MO Center=  3.7D-11, -1.2D-11, -1.0D+00, r^2= 1.2D+00
   Bfn.  Coefficient  Atom+Function         Bfn.  Coefficient  Atom+Function  
  ----- ------------  ---------------      ----- ------------  ---------------
     2     -1.244281  1 C  s                 11      1.118380  3 H  s          
    10     -0.503676  2 N  pz                 7      0.341791  2 N  s          
     5      0.313992  1 C  pz                 1      0.194705  1 C  s          

 Vector   11  Occ=0.000000D+00  E= 8.870361D-01
              MO Center=  4.3D-12, -6.6D-13, -2.0D-01, r^2= 8.9D-01
   Bfn.  Coefficient  Atom+Function         Bfn.  Coefficient  Atom+Function  
  ----- ------------  ---------------      ----- ------------  ---------------
     5     -1.477373  1 C  pz                 7      1.114312  2 N  s          
    10     -1.029320  2 N  pz                 2     -0.676473  1 C  s          
    11     -0.651289  3 H  s          


 center of mass
 --------------
 x =   0.00000000 y =   0.00000000 z =   0.11168693

 moments of inertia (a.u.)
 ------------------
          43.212726202326           0.000000000000           0.000000000000
           0.000000000000          43.212726202326           0.000000000000
           0.000000000000           0.000000000000           0.000000000000

     Multipole analysis of the density
     ---------------------------------

     L   x y z        total         alpha         beta         nuclear
     -   - - -        -----         -----         ----         -------
     0   0 0 0      0.000000     -7.000000     -7.000000     14.000000

     1   1 0 0      0.000000      0.000000      0.000000      0.000000
     1   0 1 0      0.000000      0.000000      0.000000      0.000000
     1   0 0 1     -0.909424     -0.454712     -0.454712      0.000000

     2   2 0 0     -7.763467     -3.881734     -3.881734      0.000000
     2   1 1 0      0.000000      0.000000      0.000000      0.000000
     2   1 0 1      0.000000      0.000000      0.000000      0.000000
     2   0 2 0     -7.763467     -3.881734     -3.881734      0.000000
     2   0 1 1      0.000000      0.000000      0.000000      0.000000
     2   0 0 2     -7.043856    -16.695316    -16.695316     26.346775


 HESSIAN: the one electron contributions are done in       0.0s


 HESSIAN: 2-el 1st deriv. term done in                     0.1s


 HESSIAN: 2-el 2nd deriv. term done in                     0.2s

  stpr_wrt_fd_from_sq: overwrite of existing file:./hcn_freq.hess
 stpr_wrt_fd_dipole: overwrite of existing file./hcn_freq.fd_ddipole

 HESSIAN: the two electron contributions are done in       1.8s

                                NWChem CPHF Module
                                ------------------


  scftype          =     RHF 
  nclosed          =        7
  nopen            =        0
  variables        =       28
  # of vectors     =        9
  tolerance        = 0.10D-03
  level shift      = 0.00D+00
  max iterations   =       50
  max subspace     =       90



Iterative solution of linear equations
  No. of variables       28
  No. of equations        9
  Maximum subspace       90
        Iterations       50
       Convergence  1.0D-04
        Start time      4.4


   iter   nsub   residual    time
   ----  ------  --------  ---------
     1      9    4.80D-01       5.2
     2     18    3.27D-02       6.1
     3     27    1.91D-03       7.0
     4     36    1.16D-05       7.8
 HESSIAN: the CPHF contributions are done
  stpr_wrt_fd_from_sq: overwrite of existing file:./hcn_freq.hess
 stpr_wrt_fd_dipole: overwrite of existing file./hcn_freq.fd_ddipole
 HESSIAN: the Hessian is done


  Vibrational analysis via the FX method 

  See chapter 2 in "Molecular Vibrations" by Wilson, Decius and Cross

  Vib: Default input used 

  Nuclear Hessian passed symmetry test 



 ---------------------------- Atom information ----------------------------
     atom    #        X              Y              Z            mass
 --------------------------------------------------------------------------
    C        1  0.0000000D+00  0.0000000D+00 -9.8019763D-01  1.2000000D+01
    N        2  0.0000000D+00  0.0000000D+00  1.2739715D+00  1.4003070D+01
    H        3  0.0000000D+00  0.0000000D+00 -3.0366145D+00  1.0078250D+00
 --------------------------------------------------------------------------




          ----------------------------------------------------
          MASS-WEIGHTED NUCLEAR HESSIAN (Hartree/Bohr/Bohr/Kamu)
          ----------------------------------------------------


              1           2           3           4           5           6           7           8           9
   ----- ----- ----- ----- -----
    1   5.36685D+00
    2   3.91579D-08 5.36685D+00
    3  -1.57067D-07 1.63296D-07 1.48411D+02
    4  -2.37447D+00-7.88853D-11 9.76555D-10 1.04857D+00
    5  -7.88005D-11-2.37447D+00-3.23747D-10-5.03565D-10 1.04857D+00
    6   1.50782D-10 7.22623D-10-1.01566D+02-4.95137D-10-1.15739D-09 9.23410D+01
    7  -9.66803D+00 1.79110D-08-7.58201D-08 4.28488D+00-8.79161D-11 3.70216D-11 1.73888D+01
    8   1.79112D-08-9.66803D+00 7.84097D-08-8.88346D-11 4.28488D+00-1.24577D-09 2.78799D-08 1.73888D+01
    9   7.80046D-09-8.15830D-09-1.33522D+02 1.20948D-09-7.82449D-10 6.26433D+00 1.79427D-08-3.93750D-09 4.37385D+02



          -------------------------------------------------
          NORMAL MODE EIGENVECTORS IN CARTESIAN COORDINATES
          -------------------------------------------------
                 (Frequencies expressed in cm-1)

                    1           2           3           4           5           6
 
 Frequency        -17.79      -17.79       -2.09        0.64        0.64      793.31
 
           1    -0.11461     0.11982    -0.00008     0.13290     0.13923    -0.09374
           2     0.11982     0.11461     0.00009    -0.13923     0.13290     0.10003
           3     0.00000     0.00000    -0.19241    -0.00012     0.00000     0.00000
           4     0.12221    -0.12776    -0.00008     0.13281     0.13913     0.03844
           5    -0.12776    -0.12221     0.00009    -0.13913     0.13281    -0.04102
           6     0.00000     0.00000    -0.19241    -0.00012     0.00000     0.00000
           7    -0.33191     0.34699    -0.00008     0.13299     0.13932     0.58208
           8     0.34699     0.33191     0.00008    -0.13932     0.13299    -0.62110
           9     0.00000     0.00000    -0.19241    -0.00012     0.00000     0.00000

                    7           8           9
 
 Frequency        793.31     2203.12     3614.66
 
           1    -0.10003     0.00000     0.00000
           2    -0.09374     0.00000     0.00000
           3     0.00000    -0.18408     0.11146
           4     0.04102     0.00000     0.00000
           5     0.03844     0.00000     0.00000
           6     0.00000     0.18303    -0.02987
           7     0.62110     0.00000     0.00000
           8     0.58208     0.00000     0.00000
           9     0.00000    -0.35115    -0.91209



 ----------------------------------------------------------------------------
 Normal Eigenvalue ||         Derivative Dipole Moments (debye/angs)
  Mode   [cm**-1]  ||      [d/dqX]             [d/dqY]           [d/dqZ]
 ------ ---------- || ------------------ ------------------ -----------------
    1      -17.792 ||      -0.460               0.481             0.000
    2      -17.792 ||       0.481               0.460             0.000
    3       -2.087 ||       0.000               0.000             0.000
    4        0.635 ||       0.000               0.000             0.000
    5        0.636 ||       0.000               0.000             0.000
    6      793.306 ||       0.561              -0.598             0.000
    7      793.306 ||       0.598               0.561             0.000
    8     2203.120 ||       0.000               0.000            -0.099
    9     3614.662 ||       0.000               0.000             1.688
 ----------------------------------------------------------------------------



  
  
 ----------------------------------------------------------------------------
 Normal Eigenvalue ||                 Infra Red Intensities
  Mode   [cm**-1]  || [atomic units] [(debye/angs)**2] [(KM/mol)] [arbitrary]
 ------ ---------- || -------------- ----------------- ---------- -----------
    1      -17.792 ||    0.019213           0.443        18.729       7.836
    2      -17.792 ||    0.019213           0.443        18.729       7.836
    3       -2.087 ||    0.000000           0.000         0.000       0.000
    4        0.635 ||    0.000000           0.000         0.000       0.000
    5        0.636 ||    0.000000           0.000         0.000       0.000
    6      793.306 ||    0.029161           0.673        28.428      11.893
    7      793.306 ||    0.029161           0.673        28.428      11.893
    8     2203.120 ||    0.000421           0.010         0.410       0.172
    9     3614.662 ||    0.123499           2.849       120.393      50.370
 ----------------------------------------------------------------------------





        Vibrational analysis via the FX method 
  --- with translations and rotations projected out ---
  --- via the Eckart algorithm                      ---
 Dependent rotation vector no.                    3
  found in ECKART; assuming linear geometry
 Projected Nuclear Hessian trans-rot subspace norm:9.0428D-34
                         (should be close to zero!) 


From the projected analysis 
The Zero-Point Energy (Kcal/mol) =          10.59165827

 center of mass
 --------------
 x =   0.00000000 y =   0.00000000 z =   0.11168693

 moments of inertia (a.u.)
 ------------------
          43.212726202326           0.000000000000           0.000000000000
           0.000000000000          43.212726202326           0.000000000000
           0.000000000000           0.000000000000           0.000000000000

 Rotational Constants
 --------------------
 A=   0.000000 cm-1  (  0.000000 K)
 B=   1.393112 cm-1  (  2.004333 K)
 C=   1.393112 cm-1  (  2.004333 K)


 Temperature                      =   298.15K
 frequency scaling parameter      =   1.0000


 Linear Molecule                   

 Zero-Point correction to Energy  =   10.583 kcal/mol  (  0.016866 au)
 Thermal correction to Energy     =   12.164 kcal/mol  (  0.019385 au)
 Thermal correction to Enthalpy   =   12.757 kcal/mol  (  0.020329 au)

 Total Entropy                    =   48.147 cal/mol-K
   - Translational                =   35.800 cal/mol-K (mol. weight =  27.0109)
   - Rotational                   =   11.922 cal/mol-K (symmetry #  =        1)
   - Vibrational                  =    0.424 cal/mol-K

 Cv (constant volume heat capacity) =    6.290 cal/mol-K
   - Translational                  =    2.979 cal/mol-K
   - Rotational                     =    1.986 cal/mol-K
   - Vibrational                    =    1.325 cal/mol-K



          -------------------------------------------------
          NORMAL MODE EIGENVECTORS IN CARTESIAN COORDINATES
          -------------------------------------------------
             (Projected Frequencies expressed in cm-1)

                    1           2           3           4           5           6
 
 P.Frequency        0.00        0.00        0.00        0.00        0.00      794.49
 
           1     0.25249     0.00000     0.00000     0.02929     0.00000     0.09445
           2     0.00000     0.22883     0.00000     0.00000    -0.11066    -0.09900
           3     0.00000     0.00000    -0.19241     0.00000     0.00000     0.00000
           4     0.00000     0.00000     0.00000     0.26131     0.00000    -0.03861
           5     0.00000     0.14011     0.00000     0.00000     0.22057     0.04047
           6     0.00000     0.00000    -0.19241     0.00000     0.00000     0.00000
           7     0.48284     0.00000     0.00000    -0.18238     0.00000    -0.58811
           8     0.00000     0.30977     0.00000     0.00000    -0.41284     0.61642
           9     0.00000     0.00000    -0.19241     0.00000     0.00000     0.00000

                    7           8           9
 
 P.Frequency      794.49     2203.12     3614.66
 
           1    -0.09900     0.00000     0.00000
           2    -0.09445     0.00000     0.00000
           3     0.00000    -0.18409     0.11146
           4     0.04047     0.00000     0.00000
           5     0.03861     0.00000     0.00000
           6     0.00000     0.18303    -0.02987
           7     0.61642     0.00000     0.00000
           8     0.58811     0.00000     0.00000
           9     0.00000    -0.35115    -0.91209



 ----------------------------------------------------------------------------
 Normal Eigenvalue ||    Projected Derivative Dipole Moments (debye/angs)
  Mode   [cm**-1]  ||      [d/dqX]             [d/dqY]           [d/dqZ]
 ------ ---------- || ------------------ ------------------ -----------------
    1        0.000 ||       0.489               0.000             0.000
    2        0.000 ||       0.000               0.172             0.000
    3        0.000 ||       0.000               0.000             0.000
    4        0.000 ||      -0.450               0.000             0.000
    5        0.000 ||       0.000              -0.642             0.000
    6      794.487 ||      -0.567               0.594             0.000
    7      794.487 ||       0.594               0.567             0.000
    8     2203.121 ||       0.000               0.000            -0.099
    9     3614.660 ||       0.000               0.000             1.688
 ----------------------------------------------------------------------------



  
  
 ----------------------------------------------------------------------------
 Normal Eigenvalue ||           Projected Infra Red Intensities
  Mode   [cm**-1]  || [atomic units] [(debye/angs)**2] [(KM/mol)] [arbitrary]
 ------ ---------- || -------------- ----------------- ---------- -----------
    1        0.000 ||    0.010377           0.239        10.116       4.232
    2        0.000 ||    0.001281           0.030         1.249       0.523
    3        0.000 ||    0.000000           0.000         0.000       0.000
    4        0.000 ||    0.008762           0.202         8.542       3.574
    5        0.000 ||    0.017858           0.412        17.409       7.283
    6      794.487 ||    0.029235           0.674        28.499      11.923
    7      794.487 ||    0.029235           0.674        28.499      11.923
    8     2203.121 ||    0.000421           0.010         0.410       0.172
    9     3614.660 ||    0.123499           2.849       120.393      50.370
 ----------------------------------------------------------------------------



 vib:animation  F

 Task  times  cpu:        7.6s     wall:        7.8s


                                NWChem Input Module
  Summary of allocated global arrays
-----------------------------------
  No active global arrays



                         GA Statistics for process    0
                         ------------------------------

       create   destroy   get      put      acc     scatter   gather  read&inc
calls:  642      642     5.60e+04 4974     4.26e+04  236        0        0     
number of processes/call 1.00e+00 1.00e+00 1.00e+00 1.00e+00 0.00e+00
bytes total:             7.37e+06 7.83e+05 5.93e+06 2.02e+05 0.00e+00 0.00e+00
bytes remote:            0.00e+00 0.00e+00 0.00e+00 0.00e+00 0.00e+00 0.00e+00
Max memory consumed for GA by this process: 102592 bytes
MA_summarize_allocated_blocks: starting scan ...
MA_summarize_allocated_blocks: scan completed: 0 heap blocks, 0 stack blocks
MA usage statistics:

	allocation statistics:
					      heap	     stack
					      ----	     -----
	current number of blocks	         0	         0
	maximum number of blocks	        25	        53
	current total bytes		         0	         0
	maximum total bytes		   4333704	  64833688
	maximum total K-bytes		      4334	     64834
	maximum total M-bytes		         5	        65
                               -------------------





                                     CITATION
                                     --------
                Please cite the following reference when publishing
                           results obtained with NWChem:

                 M. Valiev, E.J. Bylaska, N. Govind, K. Kowalski,
              T.P. Straatsma, H.J.J. van Dam, D. Wang, J. Nieplocha,
                        E. Apra, T.L. Windus, W.A. de Jong
                 "NWChem: a comprehensive and scalable open-source
                  solution for large scale molecular simulations"
                      Comput. Phys. Commun. 181, 1477 (2010)
                           doi:10.1016/j.cpc.2010.04.018

                              AUTHORS & CONTRIBUTORS
                              ----------------------
      E. J. Bylaska, W. A. de Jong, N. Govind, K. Kowalski, T. P. Straatsma,
     M. Valiev, H. J. J. van Dam, D. Wang, E. Apra, T. L. Windus, J. Hammond,
     J. Autschbach, P. Nichols, S. Hirata, M. T. Hackler, Y. Zhao, P.-D. Fan,
      R. J. Harrison, M. Dupuis, D. M. A. Smith, K. Glaesemann, J. Nieplocha,
      V. Tipparaju, M. Krishnan, A. Vazquez-Mayagoitia, L. Jensen, M. Swart,
      Q. Wu, T. Van Voorhis, A. A. Auer, M. Nooijen, L. D. Crosby, E. Brown,
             G. Cisneros, G. I. Fann, H. Fruchtl, J. Garza, K. Hirao,
        R. Kendall, J. A. Nichols, K. Tsemekhman, K. Wolinski, J. Anchell,
       D. Bernholdt, P. Borowski, T. Clark, D. Clerc, H. Dachsel, M. Deegan,
        K. Dyall, D. Elwood, E. Glendening, M. Gutowski, A. Hess, J. Jaffe,
        B. Johnson, J. Ju, R. Kobayashi, R. Kutteh, Z. Lin, R. Littlefield,
    X. Long, B. Meng, T. Nakajima, S. Niu, L. Pollack, M. Rosing, G. Sandrone,
       M. Stave, H. Taylor, G. Thomas, J. H. van Lenthe, A. Wong, Z. Zhang.

 Total times  cpu:        7.6s     wall:        7.9s
