----- GAMESS execution script 'rungms' -----
This job is running on host iMac-de-Eric-28321.local
under operating system Darwin at Mer 1 mai 2013 18:02:19 CEST
Available scratch disk space (Kbyte units) at beginning of the job is
Filesystem   1024-blocks      Used Available Capacity  Mounted on
/dev/disk0s2   244277768 228643668  15378100    94%    /
GAMESS temporary binary files will be written to ./
GAMESS supplementary output files will be written to ./
Copying input file exam02.inp to your run's scratch directory...
cp exam02.inp .//exam02.F05
unset echo
/usr/local/lib/gamess/ddikick.x /usr/local/lib/gamess/gamess.May12012R2.x exam02 -ddi 1 1 localhost -scr ./

 Distributed Data Interface kickoff program.
 Initiating 1 compute processes on 1 nodes to run the following command:
 /usr/local/lib/gamess/gamess.May12012R2.x exam02 

          ******************************************************
          *         GAMESS VERSION =  1 MAY 2012 (R2)          *
          *             FROM IOWA STATE UNIVERSITY             *
          * M.W.SCHMIDT, K.K.BALDRIDGE, J.A.BOATZ, S.T.ELBERT, *
          *   M.S.GORDON, J.H.JENSEN, S.KOSEKI, N.MATSUNAGA,   *
          *          K.A.NGUYEN, S.J.SU, T.L.WINDUS,           *
          *       TOGETHER WITH M.DUPUIS, J.A.MONTGOMERY       *
          *         J.COMPUT.CHEM.  14, 1347-1363(1993)        *
          **************** 64 BIT LINUX VERSION ****************

  SINCE 1993, STUDENTS AND POSTDOCS WORKING AT IOWA STATE UNIVERSITY
  AND ALSO IN THEIR VARIOUS JOBS AFTER LEAVING ISU HAVE MADE IMPORTANT
  CONTRIBUTIONS TO THE CODE:
     IVANA ADAMOVIC, CHRISTINE AIKENS, YURI ALEXEEV, POOJA ARORA,
     ANDREY ASADCHEV, ROB BELL, PRADIPTA BANDYOPADHYAY, JONATHAN BENTZ,
     BRETT BODE, GALINA CHABAN, WEI CHEN, CHEOL HO CHOI, PAUL DAY,
     ALBERT DEFUSCO, TIM DUDLEY, DMITRI FEDOROV, GRAHAM FLETCHER,
     MARK FREITAG, KURT GLAESEMANN, DAN KEMP, GRANT MERRILL,
     NORIYUKI MINEZAWA, JONATHAN MULLIN, TAKESHI NAGATA,
     SEAN NEDD, HEATHER NETZLOFF, BOSILJKA NJEGIC, RYAN OLSON, MIKE PAK,
     JIM SHOEMAKER, LYUDMILA SLIPCHENKO, SAROM SOK, JIE SONG,
     TETSUYA TAKETSUGU, SIMON WEBB, SOOHAENG YOO, FEDERICO ZAHARIEV

  ADDITIONAL CODE HAS BEEN PROVIDED BY COLLABORATORS IN OTHER GROUPS:
     IOWA STATE UNIVERSITY:
          JOE IVANIC, LAIMUTIS BYTAUTAS, KLAUS RUEDENBERG
     UNIVERSITY OF TOKYO: KIMIHIKO HIRAO, TAKAHITO NAKAJIMA,
          TAKAO TSUNEDA, MUNEAKI KAMIYA, SUSUMU YANAGISAWA,
          KIYOSHI YAGI, MAHITO CHIBA, SEIKEN TOKURA, NAOAKI KAWAKAMI
     UNIVERSITY OF AARHUS: FRANK JENSEN
     UNIVERSITY OF IOWA: VISVALDAS KAIRYS, HUI LI
     NATIONAL INST. OF STANDARDS AND TECHNOLOGY: WALT STEVENS, DAVID GARMER
     UNIVERSITY OF PISA: BENEDETTA MENNUCCI, JACOPO TOMASI
     UNIVERSITY OF MEMPHIS: HENRY KURTZ, PRAKASHAN KORAMBATH
     UNIVERSITY OF ALBERTA: TOBY ZENG, MARIUSZ KLOBUKOWSKI
     UNIVERSITY OF NEW ENGLAND: MARK SPACKMAN
     MIE UNIVERSITY: HIROAKI UMEDA
     MICHIGAN STATE UNIVERSITY:
          KAROL KOWALSKI, MARTA WLOCH, JEFFREY GOUR, JESSE LUTZ, PIOTR PIECUCH
     UNIVERSITY OF SILESIA: MONIKA MUSIAL, STANISLAW KUCHARSKI
     FACULTES UNIVERSITAIRES NOTRE-DAME DE LA PAIX:
          OLIVIER QUINET, BENOIT CHAMPAGNE
     UNIVERSITY OF CALIFORNIA - SANTA BARBARA: BERNARD KIRTMAN
     INSTITUTE FOR MOLECULAR SCIENCE:
          KAZUYA ISHIMURA, MICHIO KATOUDA, AND SHIGERU NAGASE
     UNIVERSITY OF NOTRE DAME: DAN CHIPMAN
     KYUSHU UNIVERSITY:
          HARUYUKI NAKANO,
          FENG LONG GU, JACEK KORCHOWIEC, MARCIN MAKOWSKI, AND YURIKO AOKI,
          HIROTOSHI MORI AND EISAKU MIYOSHI
     PENNSYLVANIA STATE UNIVERSITY:
          TZVETELIN IORDANOV, CHET SWALINA, JONATHAN SKONE,
          SHARON HAMMES-SCHIFFER
     WASEDA UNIVERSITY:
          MASATO KOBAYASHI, TOMOKO AKAMA, TSUGUKI TOUMA,
          TAKESHI YOSHIKAWA, YASUHIRO IKABATA, HIROMI NAKAI
     UNIVERSITY OF NEBRASKA:
          PEIFENG SU, DEJUN SI, NANDUN THELLAMUREGE, YALI WANG, HUI LI
     UNIVERSITY OF ZURICH:
          ROBERTO PEVERATI, KIM BALDRIDGE
     N. COPERNICUS UNIVERSITY AND JACKSON STATE UNIVERSITY:
          MARIA BARYSZ

 EXECUTION OF GAMESS BEGUN Wed May  1 18:02:19 2013

            ECHO OF THE FIRST FEW INPUT CARDS -
 INPUT CARD>! EXAM02.                                                                       
 INPUT CARD>!    3-B-1 CH2    UHF calculation on methylene ground state.                    
 INPUT CARD>!                                                                               
 INPUT CARD>!    This test uses the default choice, COORD=UNIQUE, to                        
 INPUT CARD>!    enter the molecule.  Only the symmetry unique atoms                        
 INPUT CARD>!    are given, and they must be given in the orientation                       
 INPUT CARD>!    which GAMESS expects.                                                      
 INPUT CARD>!                                                                               
 INPUT CARD>!    This job tests the UHF energy and the UHF gradient.                        
 INPUT CARD>!    In addition, the orbitals are localized.                                   
 INPUT CARD>!                                                                               
 INPUT CARD>!    The initial energy is -37.228465066.                                       
 INPUT CARD>!    The FINAL energy is -37.2810867259 after 11 iterations.                    
 INPUT CARD>!    The unrestricted wavefunction has <S**2> = 2.013.                          
 INPUT CARD>!    Mulliken, Lowdin charges on C are -0.020584, 0.018720.                     
 INPUT CARD>!    The spin density at Hydrogen is -0.0167104.                                
 INPUT CARD>!    The dipole moment is 0.016188.                                             
 INPUT CARD>!    The RMS gradient is 0.027589766.                                           
 INPUT CARD>!    FINAL localization sums are 30.57 and 25.14 Debye**2.                      
 INPUT CARD>!                                                                               
 INPUT CARD> $CONTRL SCFTYP=UHF MULT=3 RUNTYP=HESSIAN  LOCAL=BOYS $END                      
 INPUT CARD> $SYSTEM TIMLIM=1 $END                                                          
 INPUT CARD> $BASIS  GBASIS=STO NGAUSS=2 $END                                               
 INPUT CARD> $GUESS  GUESS=HUCKEL $END                                                      
 INPUT CARD> $DATA                                                                          
 INPUT CARD>Methylene...3-B-1 state...UHF/STO-2G                                            
 INPUT CARD>Cnv  2                                                                          
 INPUT CARD>                                                                                
 INPUT CARD>Carbon     6.0                                                                  
 INPUT CARD>Hydrogen   1.0    0.0      0.82884      0.7079                                  
 INPUT CARD> $END                                                                           
    1000000 WORDS OF MEMORY AVAILABLE

     BASIS OPTIONS
     -------------
     GBASIS=STO          IGAUSS=       2      POLAR=NONE    
     NDFUNC=       0     NFFUNC=       0     DIFFSP=       F
     NPFUNC=       0      DIFFS=       F     BASNAM=        


     RUN TITLE
     ---------
 Methylene...3-B-1 state...UHF/STO-2G                                            

 THE POINT GROUP OF THE MOLECULE IS CNV     
 THE ORDER OF THE PRINCIPAL AXIS IS     2

 ATOM      ATOMIC                      COORDINATES (BOHR)
           CHARGE         X                   Y                   Z
 CARBON      6.0     0.0000000000        0.0000000000        0.0000000000
 HYDROGEN    1.0     0.0000000000       -1.5662804877        1.3377370267
 HYDROGEN    1.0     0.0000000000        1.5662804877        1.3377370267

          INTERNUCLEAR DISTANCES (ANGS.)
          ------------------------------

                1 CARB       2 HYDR       3 HYDR  

   1 CARB    0.0000000    1.0899992 *  1.0899992 *
   2 HYDR    1.0899992 *  0.0000000    1.6576800 *
   3 HYDR    1.0899992 *  1.6576800 *  0.0000000  

  * ... LESS THAN  3.000


     ATOMIC BASIS SET
     ----------------
 THE CONTRACTED PRIMITIVE FUNCTIONS HAVE BEEN UNNORMALIZED
 THE CONTRACTED BASIS FUNCTIONS ARE NOW NORMALIZED TO UNITY

  SHELL TYPE  PRIMITIVE        EXPONENT          CONTRACTION COEFFICIENT(S)

 CARBON    

      1   S       1            27.3850330    0.430128498301
      1   S       2             4.8745221    0.678913530502

      2   L       3             1.1367482    0.049471769201    0.511540707616
      2   L       4             0.2883094    0.963782408119    0.612819896119

 HYDROGEN  

      4   S       5             1.3097564    0.430128498301
      4   S       6             0.2331360    0.678913530502

 TOTAL NUMBER OF BASIS SET SHELLS             =    4
 NUMBER OF CARTESIAN GAUSSIAN BASIS FUNCTIONS =    7
 NUMBER OF ELECTRONS                          =    8
 CHARGE OF MOLECULE                           =    0
 SPIN MULTIPLICITY                            =    3
 NUMBER OF OCCUPIED ORBITALS (ALPHA)          =    5
 NUMBER OF OCCUPIED ORBITALS (BETA )          =    3
 TOTAL NUMBER OF ATOMS                        =    3
 THE NUCLEAR REPULSION ENERGY IS        6.1450367257

     $CONTRL OPTIONS
     ---------------
 SCFTYP=UHF          RUNTYP=HESSIAN      EXETYP=RUN     
 MPLEVL=       0     CITYP =NONE         CCTYP =NONE         VBTYP =NONE    
 DFTTYP=NONE         TDDFT =NONE    
 MULT  =       3     ICHARG=       0     NZVAR =       0     COORD =UNIQUE  
 PP    =NONE         RELWFN=NONE         LOCAL =BOYS         NUMGRD=       F
 ISPHER=      -1     NOSYM =       0     MAXIT =      30     UNITS =ANGS    
 PLTORB=       F     MOLPLT=       F     AIMPAC=       F     FRIEND=        
 NPRINT=       7     IREST =       0     GEOM  =INPUT   
 NORMF =       0     NORMP =       0     ITOL  =      20     ICUT  =       9
 INTTYP=BEST         GRDTYP=BEST         QMTTOL= 1.0E-06

     $SYSTEM OPTIONS
     ---------------
  REPLICATED MEMORY=     1000000 WORDS (ON EVERY NODE).
 DISTRIBUTED MEMDDI=           0 MILLION WORDS IN AGGREGATE,
 MEMDDI DISTRIBUTED OVER   1 PROCESSORS IS           0 WORDS/PROCESSOR.
 TOTAL MEMORY REQUESTED ON EACH PROCESSOR=     1000000 WORDS.
 TIMLIM=           1.00 MINUTES, OR       0.0 DAYS.
 PARALL= F  BALTYP=  DLB     KDIAG=    0  COREFL= F
 MXSEQ2=     300 MXSEQ3=     150

          ----------------
          PROPERTIES INPUT
          ----------------

     MOMENTS            FIELD           POTENTIAL          DENSITY
 IEMOM =       1   IEFLD =       0   IEPOT =       0   IEDEN =       0
 WHERE =COMASS     WHERE =NUCLEI     WHERE =NUCLEI     WHERE =NUCLEI  
 OUTPUT=BOTH       OUTPUT=BOTH       OUTPUT=BOTH       OUTPUT=BOTH    
 IEMINT=       0   IEFINT=       0                     IEDINT=       0
                                                       MORB  =       0
          EXTRAPOLATION IN EFFECT
 ORBITAL PRINTING OPTION: NPREO=     1     7     2     1

     -------------------------------
     INTEGRAL TRANSFORMATION OPTIONS
     -------------------------------
     NWORD  =            0
     CUTOFF = 1.0E-09     MPTRAN =       0
     DIRTRF =       F     AOINTS =DUP     

          -----------------------------
          LOCALIZATION INPUT PARAMETERS
          -----------------------------
           LOCAL=BOYS          NOUTA=       1
          PRTLOC=       F      NOUTB=       1
          MAXLOC=     250     CVGLOC=1.00E-06
           FCORE=       T     SYMLOC=       F
          MOIDON=       F     EDCOMP=       F
          DIPDCM=       F      NPROT=       0
          QADDCM=       F     DEPRNT=       F
          POLNUM=       F     ORIENT=       F
          POLDYN=       F      VMTOL=1.50E-01
          NPRDTL=       2
          MOOUTA =      1
          MOOUTB =      1

          ----------------------
          INTEGRAL INPUT OPTIONS
          ----------------------
 NOPK  =       1 NORDER=       0 SCHWRZ=       F

     ------------------------------------------
     THE POINT GROUP IS CNV, NAXIS= 2, ORDER= 4
     ------------------------------------------

     DIMENSIONS OF THE SYMMETRY SUBSPACES ARE
 A1  =    4     A2  =    0     B1  =    1     B2  =    2

 ..... DONE SETTING UP THE RUN .....
 STEP CPU TIME =     0.00 TOTAL CPU TIME =        0.0 (    0.0 MIN)
 TOTAL WALL CLOCK TIME=        0.0 SECONDS, CPU UTILIZATION IS   0.00%

     ---------------------------------
     HESSIAN MATRIX CONTROL PARAMETERS
     ---------------------------------
     METHOD=SEMINUM    NVIB  =       2   VIBSIZ= 0.01000
     RDHESS=       F   PURIFY=       F   PRTIFC=       F
     VIBANL=       T   DECOMP=       F   PROJCT=       F
     SCLFAC= 1.00000   PRTSCN=       F   NPRT  =       0
     PULCOR=       F   NPUN  =       0   REDOVB=       T
     THERMOCHEMISTRY WILL BE PRINTED FOR    1 TEMPERATURES:
      298.15000
1   ATOM  0
                                        -------------------
   COORD  0                             NUCLEAR COORDINATES
                                        -------------------
     VIB  0

                       ATOM             X              Y              Z

                 1  CARBON           0.000000       0.000000       0.000000
                 2  HYDROGEN         0.000000      -1.566280       1.337737
                 3  HYDROGEN         0.000000       1.566280       1.337737

          ********************
          1 ELECTRON INTEGRALS
          ********************
 ...... END OF ONE-ELECTRON INTEGRALS ......
 STEP CPU TIME =     0.00 TOTAL CPU TIME =        0.0 (    0.0 MIN)
 TOTAL WALL CLOCK TIME=        0.0 SECONDS, CPU UTILIZATION IS   0.00%

          -------------
          GUESS OPTIONS
          -------------
          GUESS =HUCKEL            NORB  =       0          NORDER=       0
          MIX   =       F          PRTMO =       F          PUNMO =       F
          TOLZ  = 1.0E-08          TOLE  = 1.0E-05
          SYMDEN=       F          PURIFY=       F

 INITIAL GUESS ORBITALS GENERATED BY HUCKEL   ROUTINE.
 HUCKEL GUESS REQUIRES      2569 WORDS.

 SYMMETRIES FOR INITIAL GUESS ORBITALS FOLLOW.  ALPHA SET(S).
     5 ORBITALS ARE OCCUPIED (    1 CORE ORBITALS).
     2=A1       3=B2       4=A1       5=B1       6=B2       7=A1  

 SYMMETRIES FOR INITIAL GUESS ORBITALS FOLLOW.   BETA SET(S).
     3 ORBITALS ARE OCCUPIED (    1 CORE ORBITALS).
     2=A1       3=B2       4=A1       5=B1       6=B2       7=A1  
 ...... END OF INITIAL ORBITAL SELECTION ......
 STEP CPU TIME =     0.00 TOTAL CPU TIME =        0.0 (    0.0 MIN)
 TOTAL WALL CLOCK TIME=        0.0 SECONDS, CPU UTILIZATION IS   0.00%

                    ----------------------
                    AO INTEGRAL TECHNOLOGY
                    ----------------------
     S,P,L SHELL ROTATED AXIS INTEGRALS, REPROGRAMMED BY
        KAZUYA ISHIMURA (IMS) AND JOSE SIERRA (SYNSTAR).
     S,P,D,L SHELL ROTATED AXIS INTEGRALS PROGRAMMED BY
        KAZUYA ISHIMURA (INSTITUTE FOR MOLECULAR SCIENCE).
     S,P,D,F,G SHELL TO TOTAL QUARTET ANGULAR MOMENTUM SUM 5,
        ERIC PROGRAM BY GRAHAM FLETCHER (ELORET AND NASA ADVANCED
        SUPERCOMPUTING DIVISION, AMES RESEARCH CENTER).
     S,P,D,F,G,L SHELL GENERAL RYS QUADRATURE PROGRAMMED BY
        MICHEL DUPUIS (PACIFIC NORTHWEST NATIONAL LABORATORY).

          --------------------
          2 ELECTRON INTEGRALS
          --------------------

 THE -PK- OPTION IS OFF, THE INTEGRALS ARE NOT IN SUPERMATRIX FORM.
 STORING   15000 INTEGRALS/RECORD ON DISK, USING 12 BYTES/INTEGRAL.
 TWO ELECTRON INTEGRAL EVALUATION REQUIRES   89366 WORDS OF MEMORY.
 II,JST,KST,LST =  1  1  1  1 NREC =         1 INTLOC =    1
 II,JST,KST,LST =  2  1  1  1 NREC =         1 INTLOC =    2
 II,JST,KST,LST =  3  1  1  1 NREC =         1 INTLOC =   34
 II,JST,KST,LST =  4  1  1  1 NREC =         1 INTLOC =   34
 TOTAL NUMBER OF NONZERO TWO-ELECTRON INTEGRALS =                 141
          1 INTEGRAL RECORDS WERE STORED ON DISK FILE  8.
  ...... END OF TWO-ELECTRON INTEGRALS .....
 STEP CPU TIME =     0.01 TOTAL CPU TIME =        0.0 (    0.0 MIN)
 TOTAL WALL CLOCK TIME=        0.0 SECONDS, CPU UTILIZATION IS  50.00%

          ---------------------------
                  UHF SCF CALCULATION
          ---------------------------

     NUCLEAR ENERGY =         6.1450367257
     MAXIT = 30     NPUNCH=  2     MULT=  3
     EXTRAP=T  DAMP=F  SHIFT=F  RSTRCT=F  DIIS=F  SOSCF=F
     DENSITY MATRIX CONV=  1.00E-05
     MEMORY REQUIRED FOR UHF/ROHF ITERS=     30602 WORDS.

 ITER EX      TOTAL ENERGY        E CHANGE  DENSITY CHANGE    DIIS ERROR
   1  0      -37.2284650659   -37.2284650659   0.272555848   0.000000000
   2  1      -37.2782601141    -0.0497950483   0.080141855   0.000000000
   3  2      -37.2806620902    -0.0024019761   0.025889127   0.000000000
   4  3      -37.2809742315    -0.0003121413   0.009530097   0.000000000
   5  0      -37.2810469193    -0.0000726877   0.013737471   0.000000000
   6  1      -37.2810866141    -0.0000396948   0.000271057   0.000000000
   7  2      -37.2810867126    -0.0000000986   0.000111454   0.000000000
   8  3      -37.2810867236    -0.0000000110   0.000050655   0.000000000
   9  4      -37.2810867254    -0.0000000017   0.000024072   0.000000000
  10  5      -37.2810867258    -0.0000000004   0.000012174   0.000000000
  11  6      -37.2810867259    -0.0000000001   0.000006754   0.000000000

          -----------------
          DENSITY CONVERGED
          -----------------
     TIME TO FORM FOCK OPERATORS=       0.0 SECONDS (       0.0 SEC/ITER)
     TIME TO SOLVE SCF EQUATIONS=       0.0 SECONDS (       0.0 SEC/ITER)

 FINAL UHF ENERGY IS      -37.2810867259 AFTER  11 ITERATIONS

          --------------------
          SPIN SZ   =    1.000
          S-SQUARED =    2.013
          --------------------

  ----- ALPHA SET ----- 

          ------------
          EIGENVECTORS
          ------------

                      1          2          3          4          5
                  -10.6209    -0.8774    -0.4921    -0.4368    -0.3481
                     A1         A1         B2         A1         B1  
    1  C  1  S    0.982876  -0.277160   0.000000   0.119933   0.000000
    2  C  1  S    0.066049   0.775087   0.000000  -0.507869   0.000000
    3  C  1  X    0.000000   0.000000   0.000000   0.000000   1.000000
    4  C  1  Y    0.000000   0.000000   0.595009   0.000000   0.000000
    5  C  1  Z    0.010442   0.034537   0.000000   0.771549   0.000000
    6  H  2  S   -0.016514   0.217211  -0.423365   0.268505   0.000000
    7  H  3  S   -0.016514   0.217211   0.423365   0.268505   0.000000

                      6          7
                    0.7057     0.7794
                     B2         A1  
    1  C  1  S    0.000000  -0.211300
    2  C  1  S    0.000000   1.100650
    3  C  1  X    0.000000   0.000000
    4  C  1  Y    1.052117   0.000000
    5  C  1  Z    0.000000   0.869651
    6  H  2  S    0.855282  -0.914432
    7  H  3  S   -0.855282  -0.914432

  ----- BETA SET ----- 

          ------------
          EIGENVECTORS
          ------------

                      1          2          3          4          5
                  -10.5650    -0.7114    -0.4428     0.2820     0.4001
                     A1         A1         B2         A1         B1  
    1  C  1  S    0.984294  -0.211778   0.000000  -0.217664   0.000000
    2  C  1  S    0.061151   0.516509   0.000000   0.832569   0.000000
    3  C  1  X    0.000000   0.000000   0.000000   0.000000   1.000000
    4  C  1  Y    0.000000   0.000000  -0.494294   0.000000   0.000000
    5  C  1  Z    0.010356   0.210094   0.000000  -0.628814   0.000000
    6  H  2  S   -0.015710   0.344573   0.501284  -0.283366   0.000000
    7  H  3  S   -0.015710   0.344573  -0.501284  -0.283366   0.000000

                      6          7
                    0.8010     0.8588
                     B2         A1  
    1  C  1  S    0.000000  -0.202068
    2  C  1  S    0.000000   1.053940
    3  C  1  X    0.000000   0.000000
    4  C  1  Y    1.103023   0.000000
    5  C  1  Z    0.000000   0.955630
    6  H  2  S    0.812071  -0.869748
    7  H  3  S   -0.812071  -0.869748
 ...... END OF UHF CALCULATION ......
 STEP CPU TIME =     0.00 TOTAL CPU TIME =        0.0 (    0.0 MIN)
 TOTAL WALL CLOCK TIME=        0.0 SECONDS, CPU UTILIZATION IS  50.00%

     ----------------------------------------------------------------
     PROPERTY VALUES FOR THE UHF   SELF-CONSISTENT FIELD WAVEFUNCTION
     ----------------------------------------------------------------

          -----------------
          ENERGY COMPONENTS
          -----------------

         WAVEFUNCTION NORMALIZATION =       1.0000000000

                ONE ELECTRON ENERGY =     -62.3576861421
                TWO ELECTRON ENERGY =      18.9315626905
           NUCLEAR REPULSION ENERGY =       6.1450367257
                                      ------------------
                       TOTAL ENERGY =     -37.2810867259

 ELECTRON-ELECTRON POTENTIAL ENERGY =      18.9315626905
  NUCLEUS-ELECTRON POTENTIAL ENERGY =     -99.3934448673
   NUCLEUS-NUCLEUS POTENTIAL ENERGY =       6.1450367257
                                      ------------------
             TOTAL POTENTIAL ENERGY =     -74.3168454511
               TOTAL KINETIC ENERGY =      37.0357587252
                 VIRIAL RATIO (V/T) =       2.0066240846

  ...... PI ENERGY ANALYSIS ......

 ENERGY ANALYSIS:
            FOCK ENERGY=    -24.4945606799
          BARE H ENERGY=    -62.3576861421
     ELECTRONIC ENERGY =    -43.4261234110
         KINETIC ENERGY=     37.0357587252
          N-N REPULSION=      6.1450367257
           TOTAL ENERGY=    -37.2810866853
        SIGMA PART(1+2)=    -41.0276116335
               (K,V1,2)=     35.6042714271    -93.5130743087     16.8811912481
           PI PART(1+2)=     -2.3985117775
               (K,V1,2)=      1.4314872981     -5.8803705586      2.0503714830
  SIGMA SKELETON, ERROR=    -34.8825749079      0.0000000000
             MIXED PART= 0.00000E+00 0.00000E+00 0.00000E+00 0.00000E+00
 ...... END OF PI ENERGY ANALYSIS ......

          ---------------------------------------
          MULLIKEN AND LOWDIN POPULATION ANALYSES
          ---------------------------------------

     ATOMIC MULLIKEN POPULATION IN EACH MOLECULAR ORBITAL
        ALPHA ORBITALS

                      1          2          3          4          5

                  1.000000   1.000000   1.000000   1.000000   1.000000

    1             1.002463   0.724852   0.533254   0.830988   1.000000
    2            -0.001231   0.137574   0.233373   0.084506   0.000000
    3            -0.001231   0.137574   0.233373   0.084506   0.000000

     ATOMIC MULLIKEN POPULATION IN EACH MOLECULAR ORBITAL
         BETA ORBITALS

                      1          2          3

                  1.000000   1.000000   1.000000

    1             1.002300   0.506116   0.420611
    2            -0.001150   0.246942   0.289695
    3            -0.001150   0.246942   0.289695

     ATOMIC SPIN POPULATION (ALPHA MINUS BETA)
       ATOM         MULL.POP.                    LOW.POP.
    1 CARBON        2.162531                     2.122214
    2 HYDROGEN     -0.081265                    -0.061107
    3 HYDROGEN     -0.081265                    -0.061107


          ********* ALL ELECTRONS ********

               ----- POPULATIONS IN EACH AO -----
                             MULLIKEN      LOWDIN
              1  C  1  S      1.98482     1.97655
              2  C  1  S      1.26683     1.18251
              3  C  1  X      1.00000     1.00000
              4  C  1  Y      0.95386     0.99553
              5  C  1  Z      0.81506     0.82669
              6  H  2  S      0.98971     1.00936
              7  H  3  S      0.98971     1.00936

          ----- MULLIKEN ATOMIC OVERLAP POPULATIONS -----
          (OFF-DIAGONAL ELEMENTS NEED TO BE MULTIPLIED BY 2)

             1           2           3

    1    5.3032675
    2    0.3586581   0.6690498
    3    0.3586581  -0.0379998   0.6690498

          TOTAL MULLIKEN AND LOWDIN ATOMIC POPULATIONS
       ATOM         MULL.POP.    CHARGE          LOW.POP.     CHARGE
    1 CARBON        6.020584   -0.020584         5.981280    0.018720
    2 HYDROGEN      0.989708    0.010292         1.009360   -0.009360
    3 HYDROGEN      0.989708    0.010292         1.009360   -0.009360

          -------------------------------
          BOND ORDER AND VALENCE ANALYSIS     BOND ORDER THRESHOLD=0.050
          -------------------------------

                   BOND                       BOND                       BOND
  ATOM PAIR DIST  ORDER      ATOM PAIR DIST  ORDER      ATOM PAIR DIST  ORDER
    1   2  1.090  0.989        1   3  1.090  0.989

                       TOTAL       BONDED        FREE
      ATOM            VALENCE     VALENCE     VALENCE
    1 CARBON            3.910       1.978       1.932
    2 HYDROGEN          1.000       0.993       0.007
    3 HYDROGEN          1.000       0.993       0.007

          -----------------------------------------
          ATOMIC SPIN DENSITY AT THE NUCLEUS (A.U.)
          -----------------------------------------
                            SPIN DENS    ALPHA DENS     BETA DENS
    1  CARBON       6.0     0.7816252      28.56393      27.78230
    2  HYDROGEN     1.0    -0.0167104       0.14074       0.15745
    3  HYDROGEN     1.0    -0.0167104       0.14074       0.15745

          ---------------------
          ELECTROSTATIC MOMENTS
          ---------------------

 POINT   1           X           Y           Z (BOHR)    CHARGE
                 0.000000    0.000000    0.192386        0.00 (A.U.)
         DX          DY          DZ         /D/  (DEBYE)
     0.000000    0.000000    0.016188    0.016188
 ...... END OF PROPERTY EVALUATION ......
 STEP CPU TIME =     0.01 TOTAL CPU TIME =        0.0 (    0.0 MIN)
 TOTAL WALL CLOCK TIME=        0.0 SECONDS, CPU UTILIZATION IS 100.00%

 BEGINNING ONE ELECTRON GRADIENT...
 ..... END OF 1-ELECTRON GRADIENT ......
 STEP CPU TIME =     0.00 TOTAL CPU TIME =        0.0 (    0.0 MIN)
 TOTAL WALL CLOCK TIME=        0.0 SECONDS, CPU UTILIZATION IS 100.00%

          ----------------------
          GRADIENT OF THE ENERGY
          ----------------------
 THE COARSE/FINE SCHWARZ SCREENINGS SKIPPED            0/           0 BLOCKS.
 THE NUMBER OF GRADIENT INTEGRAL BLOCKS COMPUTED WAS        27
 ...... END OF 2-ELECTRON GRADIENT ......
 STEP CPU TIME =     0.00 TOTAL CPU TIME =        0.0 (    0.0 MIN)
 TOTAL WALL CLOCK TIME=        0.0 SECONDS, CPU UTILIZATION IS 100.00%
 THE VIB 0 GRADIENT RMS = 2.75897664E-02

 THE VIB 0 GEOMETRY GRADIENT IS

 UNITS ARE HARTREE/BOHR    E'X               E'Y               E'Z 
    1 CARBON           0.000000000       0.000000000      -0.057578167
    2 HYDROGEN         0.000000000       0.030642200       0.028789084
    3 HYDROGEN         0.000000000      -0.030642200       0.028789084
  $VIB   
          IVIB=   0 IATOM=   0 ICOORD=   0 E=      -37.2810867259
  0.000000000E+00 0.000000000E+00-5.757816739E-02 0.000000000E+00 3.064220014E-02
  2.878908370E-02 0.000000000E+00-3.064220014E-02 2.878908370E-02
  3.670658379E-17-5.643854273E-16 1.618842898E-02
1   ATOM  1
                                        -------------------
   COORD  1                             NUCLEAR COORDINATES
                                        -------------------
     VIB  1

                       ATOM             X              Y              Z

                 1  CARBON           0.010000       0.000000       0.000000
                 2  HYDROGEN         0.000000      -1.566280       1.337737
                 3  HYDROGEN         0.000000       1.566280       1.337737
 ...... END OF ONE-ELECTRON INTEGRALS ......
 STEP CPU TIME =     0.00 TOTAL CPU TIME =        0.0 (    0.0 MIN)
 TOTAL WALL CLOCK TIME=        0.0 SECONDS, CPU UTILIZATION IS 100.00%
 TOTAL NUMBER OF NONZERO TWO-ELECTRON INTEGRALS =                 315
          1 INTEGRAL RECORDS WERE STORED ON DISK FILE  8.
  ...... END OF TWO-ELECTRON INTEGRALS .....
 STEP CPU TIME =     0.00 TOTAL CPU TIME =        0.0 (    0.0 MIN)
 TOTAL WALL CLOCK TIME=        0.0 SECONDS, CPU UTILIZATION IS 100.00%

          ---------------------------
                  UHF SCF CALCULATION
          ---------------------------
     DENSITY MATRIX CONV=  1.00E-05

 ITER EX      TOTAL ENERGY        E CHANGE  DENSITY CHANGE    DIIS ERROR
   1  0      -37.2810799700   -37.2810799700   0.001741471   0.000000000
   2  1      -37.2810834731    -0.0000035031   0.000843918   0.000000000
   3  2      -37.2810843043    -0.0000008312   0.000412568   0.000000000
   4  3      -37.2810845073    -0.0000002030   0.000202878   0.000000000
   5  4      -37.2810845572    -0.0000000499   0.000100148   0.000000000
   6  5      -37.2810845695    -0.0000000123   0.000049561   0.000000000
   7  6      -37.2810845726    -0.0000000030   0.000024566   0.000000000
   8  7      -37.2810845733    -0.0000000008   0.000012189   0.000000000
   9  8      -37.2810845735    -0.0000000002   0.000006052   0.000000000

          -----------------
          DENSITY CONVERGED
          -----------------
     TIME TO FORM FOCK OPERATORS=       0.0 SECONDS (       0.0 SEC/ITER)
     TIME TO SOLVE SCF EQUATIONS=       0.0 SECONDS (       0.0 SEC/ITER)

 FINAL UHF ENERGY IS      -37.2810845735 AFTER   9 ITERATIONS

          --------------------
          SPIN SZ   =    1.000
          S-SQUARED =    2.013
          --------------------
 ...... END OF UHF CALCULATION ......
 STEP CPU TIME =     0.00 TOTAL CPU TIME =        0.0 (    0.0 MIN)
 TOTAL WALL CLOCK TIME=        0.0 SECONDS, CPU UTILIZATION IS 100.00%
 ..... END OF 1-ELECTRON GRADIENT ......
 STEP CPU TIME =     0.00 TOTAL CPU TIME =        0.0 (    0.0 MIN)
 TOTAL WALL CLOCK TIME=        0.0 SECONDS, CPU UTILIZATION IS 100.00%
 ...... END OF 2-ELECTRON GRADIENT ......
 STEP CPU TIME =     0.00 TOTAL CPU TIME =        0.0 (    0.0 MIN)
 TOTAL WALL CLOCK TIME=        0.0 SECONDS, CPU UTILIZATION IS 100.00%

          ---------------------
          ELECTROSTATIC MOMENTS
          ---------------------

 POINT   1           X           Y           Z (BOHR)    CHARGE
                 0.008562    0.000000    0.192386        0.00 (A.U.)
         DX          DY          DZ         /D/  (DEBYE)
    -0.000128    0.000000    0.016178    0.016178

 UNITS ARE HARTREE/BOHR    E'X               E'Y               E'Z 
    1 CARBON           0.000432367       0.000000000      -0.057594942
    2 HYDROGEN        -0.000216183       0.030635025       0.028797471
    3 HYDROGEN        -0.000216183      -0.030635025       0.028797471
  $VIB   
          IVIB=   1 IATOM=   1 ICOORD=   1 E=      -37.2810845735
  4.323666747E-04 0.000000000E+00-5.759494239E-02-2.161833373E-04 3.063502549E-02
  2.879747119E-02-2.161833373E-04-3.063502549E-02 2.879747119E-02
 -1.278191914E-04 3.329874021E-14 1.617757728E-02
1   ATOM  1
                                        -------------------
   COORD  2                             NUCLEAR COORDINATES
                                        -------------------
     VIB  1

                       ATOM             X              Y              Z

                 1  CARBON           0.000000       0.010000       0.000000
                 2  HYDROGEN         0.000000      -1.566280       1.337737
                 3  HYDROGEN         0.000000       1.566280       1.337737
 ...... END OF ONE-ELECTRON INTEGRALS ......
 STEP CPU TIME =     0.00 TOTAL CPU TIME =        0.0 (    0.0 MIN)
 TOTAL WALL CLOCK TIME=        0.0 SECONDS, CPU UTILIZATION IS 100.00%
 TOTAL NUMBER OF NONZERO TWO-ELECTRON INTEGRALS =                 231
          1 INTEGRAL RECORDS WERE STORED ON DISK FILE  8.
  ...... END OF TWO-ELECTRON INTEGRALS .....
 STEP CPU TIME =     0.00 TOTAL CPU TIME =        0.0 (    0.0 MIN)
 TOTAL WALL CLOCK TIME=        0.0 SECONDS, CPU UTILIZATION IS 100.00%

          ---------------------------
                  UHF SCF CALCULATION
          ---------------------------
     DENSITY MATRIX CONV=  1.00E-05

 ITER EX      TOTAL ENERGY        E CHANGE  DENSITY CHANGE    DIIS ERROR
   1  0      -37.2810528699   -37.2810528699   0.001041941   0.000000000
   2  1      -37.2810551730    -0.0000023030   0.000430015   0.000000000
   3  2      -37.2810555299    -0.0000003569   0.000196334   0.000000000
   4  3      -37.2810556176    -0.0000000877   0.000099017   0.000000000
   5  4      -37.2810556435    -0.0000000259   0.000053970   0.000000000
   6  5      -37.2810556519    -0.0000000084   0.000031219   0.000000000
   7  6      -37.2810556548    -0.0000000029   0.000019619   0.000000000
   8  7      -37.2810556558    -0.0000000011   0.000012865   0.000000000
   9  8      -37.2810556562    -0.0000000004   0.000008455   0.000000000
  10  9      -37.2810556564    -0.0000000002   0.000005557   0.000000000

          -----------------
          DENSITY CONVERGED
          -----------------
     TIME TO FORM FOCK OPERATORS=       0.0 SECONDS (       0.0 SEC/ITER)
     TIME TO SOLVE SCF EQUATIONS=       0.0 SECONDS (       0.0 SEC/ITER)

 FINAL UHF ENERGY IS      -37.2810556564 AFTER  10 ITERATIONS

          --------------------
          SPIN SZ   =    1.000
          S-SQUARED =    2.013
          --------------------
 ...... END OF UHF CALCULATION ......
 STEP CPU TIME =     0.00 TOTAL CPU TIME =        0.0 (    0.0 MIN)
 TOTAL WALL CLOCK TIME=        0.0 SECONDS, CPU UTILIZATION IS 100.00%
 ..... END OF 1-ELECTRON GRADIENT ......
 STEP CPU TIME =     0.00 TOTAL CPU TIME =        0.0 (    0.0 MIN)
 TOTAL WALL CLOCK TIME=        0.0 SECONDS, CPU UTILIZATION IS 100.00%
 ...... END OF 2-ELECTRON GRADIENT ......
 STEP CPU TIME =     0.00 TOTAL CPU TIME =        0.0 (    0.0 MIN)
 TOTAL WALL CLOCK TIME=        0.0 SECONDS, CPU UTILIZATION IS 100.00%

          ---------------------
          ELECTROSTATIC MOMENTS
          ---------------------

 POINT   1           X           Y           Z (BOHR)    CHARGE
                 0.000000    0.008562    0.192386        0.00 (A.U.)
         DX          DY          DZ         /D/  (DEBYE)
     0.000000    0.001123    0.016164    0.016203

 UNITS ARE HARTREE/BOHR    E'X               E'Y               E'Z 
    1 CARBON           0.000000000       0.006214753      -0.057521096
    2 HYDROGEN         0.000000000       0.027551984       0.031229853
    3 HYDROGEN         0.000000000      -0.033766737       0.026291243
  $VIB   
          IVIB=   1 IATOM=   1 ICOORD=   2 E=      -37.2810556564
  0.000000000E+00 6.214753220E-03-5.752109570E-02 0.000000000E+00 2.755198402E-02
  3.122985277E-02 0.000000000E+00-3.376673724E-02 2.629124293E-02
  3.682340094E-17 1.123240789E-03 1.616403685E-02
1   ATOM  1
                                        -------------------
   COORD  3                             NUCLEAR COORDINATES
                                        -------------------
     VIB  1

                       ATOM             X              Y              Z

                 1  CARBON           0.000000       0.000000       0.010000
                 2  HYDROGEN         0.000000      -1.566280       1.337737
                 3  HYDROGEN         0.000000       1.566280       1.337737
 ...... END OF ONE-ELECTRON INTEGRALS ......
 STEP CPU TIME =     0.00 TOTAL CPU TIME =        0.0 (    0.0 MIN)
 TOTAL WALL CLOCK TIME=        0.0 SECONDS, CPU UTILIZATION IS 100.00%
 TOTAL NUMBER OF NONZERO TWO-ELECTRON INTEGRALS =                 228
          1 INTEGRAL RECORDS WERE STORED ON DISK FILE  8.
  ...... END OF TWO-ELECTRON INTEGRALS .....
 STEP CPU TIME =     0.00 TOTAL CPU TIME =        0.0 (    0.0 MIN)
 TOTAL WALL CLOCK TIME=        0.0 SECONDS, CPU UTILIZATION IS  66.67%

          ---------------------------
                  UHF SCF CALCULATION
          ---------------------------
     DENSITY MATRIX CONV=  1.00E-05

 ITER EX      TOTAL ENERGY        E CHANGE  DENSITY CHANGE    DIIS ERROR
   1  0      -37.2816368663   -37.2816368663   0.001250241   0.000000000
   2  1      -37.2816379721    -0.0000011058   0.000387977   0.000000000
   3  2      -37.2816380674    -0.0000000953   0.000135511   0.000000000
   4  3      -37.2816380799    -0.0000000125   0.000051673   0.000000000
   5  4      -37.2816380817    -0.0000000018   0.000020499   0.000000000
   6  5      -37.2816380819    -0.0000000003   0.000008566   0.000000000
   7  6      -37.2816380820     0.0000000000   0.000003819   0.000000000

          -----------------
          DENSITY CONVERGED
          -----------------
     TIME TO FORM FOCK OPERATORS=       0.0 SECONDS (       0.0 SEC/ITER)
     TIME TO SOLVE SCF EQUATIONS=       0.0 SECONDS (       0.0 SEC/ITER)

 FINAL UHF ENERGY IS      -37.2816380820 AFTER   7 ITERATIONS

          --------------------
          SPIN SZ   =    1.000
          S-SQUARED =    2.012
          --------------------
 ...... END OF UHF CALCULATION ......
 STEP CPU TIME =     0.00 TOTAL CPU TIME =        0.0 (    0.0 MIN)
 TOTAL WALL CLOCK TIME=        0.0 SECONDS, CPU UTILIZATION IS  66.67%
 ..... END OF 1-ELECTRON GRADIENT ......
 STEP CPU TIME =     0.00 TOTAL CPU TIME =        0.0 (    0.0 MIN)
 TOTAL WALL CLOCK TIME=        0.0 SECONDS, CPU UTILIZATION IS  66.67%
 ...... END OF 2-ELECTRON GRADIENT ......
 STEP CPU TIME =     0.00 TOTAL CPU TIME =        0.0 (    0.0 MIN)
 TOTAL WALL CLOCK TIME=        0.0 SECONDS, CPU UTILIZATION IS  66.67%

          ---------------------
          ELECTROSTATIC MOMENTS
          ---------------------

 POINT   1           X           Y           Z (BOHR)    CHARGE
                 0.000000    0.000000    0.200947        0.00 (A.U.)
         DX          DY          DZ         /D/  (DEBYE)
     0.000000    0.000000    0.017771    0.017771

 UNITS ARE HARTREE/BOHR    E'X               E'Y               E'Z 
    1 CARBON           0.000000000       0.000000000      -0.052687823
    2 HYDROGEN         0.000000000       0.032519780       0.026343911
    3 HYDROGEN         0.000000000      -0.032519780       0.026343911
  $VIB   
          IVIB=   1 IATOM=   1 ICOORD=   3 E=      -37.2816380820
  0.000000000E+00 0.000000000E+00-5.268782271E-02 0.000000000E+00 3.251977978E-02
  2.634391135E-02 0.000000000E+00-3.251977978E-02 2.634391135E-02
  3.659246672E-17 1.241647940E-14 1.777105964E-02
1   ATOM  3
                                        -------------------
   COORD  1                             NUCLEAR COORDINATES
                                        -------------------
     VIB  1

                       ATOM             X              Y              Z

                 1  CARBON           0.000000       0.000000       0.000000
                 2  HYDROGEN         0.000000      -1.566280       1.337737
                 3  HYDROGEN         0.010000       1.566280       1.337737
 ...... END OF ONE-ELECTRON INTEGRALS ......
 STEP CPU TIME =     0.00 TOTAL CPU TIME =        0.0 (    0.0 MIN)
 TOTAL WALL CLOCK TIME=        0.0 SECONDS, CPU UTILIZATION IS  66.67%
 TOTAL NUMBER OF NONZERO TWO-ELECTRON INTEGRALS =                 283
          1 INTEGRAL RECORDS WERE STORED ON DISK FILE  8.
  ...... END OF TWO-ELECTRON INTEGRALS .....
 STEP CPU TIME =     0.00 TOTAL CPU TIME =        0.0 (    0.0 MIN)
 TOTAL WALL CLOCK TIME=        0.0 SECONDS, CPU UTILIZATION IS  66.67%

          ---------------------------
                  UHF SCF CALCULATION
          ---------------------------
     DENSITY MATRIX CONV=  1.00E-05

 ITER EX      TOTAL ENERGY        E CHANGE  DENSITY CHANGE    DIIS ERROR
   1  0      -37.2810835901   -37.2810835901   0.001626785   0.000000000
   2  1      -37.2810858400    -0.0000022499   0.000827653   0.000000000
   3  2      -37.2810864430    -0.0000006030   0.000425387   0.000000000
   4  3      -37.2810866102    -0.0000001671   0.000220617   0.000000000
   5  4      -37.2810866575    -0.0000000474   0.000115299   0.000000000
   6  5      -37.2810866712    -0.0000000137   0.000060659   0.000000000
   7  6      -37.2810866752    -0.0000000040   0.000032099   0.000000000
   8  7      -37.2810866764    -0.0000000012   0.000017075   0.000000000
   9  8      -37.2810866767    -0.0000000004   0.000009126   0.000000000
  10  9      -37.2810866768    -0.0000000001   0.000004898   0.000000000

          -----------------
          DENSITY CONVERGED
          -----------------
     TIME TO FORM FOCK OPERATORS=       0.0 SECONDS (       0.0 SEC/ITER)
     TIME TO SOLVE SCF EQUATIONS=       0.0 SECONDS (       0.0 SEC/ITER)

 FINAL UHF ENERGY IS      -37.2810866768 AFTER  10 ITERATIONS

          --------------------
          SPIN SZ   =    1.000
          S-SQUARED =    2.013
          --------------------
 ...... END OF UHF CALCULATION ......
 STEP CPU TIME =     0.00 TOTAL CPU TIME =        0.0 (    0.0 MIN)
 TOTAL WALL CLOCK TIME=        0.0 SECONDS, CPU UTILIZATION IS  66.67%
 ..... END OF 1-ELECTRON GRADIENT ......
 STEP CPU TIME =     0.00 TOTAL CPU TIME =        0.0 (    0.0 MIN)
 TOTAL WALL CLOCK TIME=        0.0 SECONDS, CPU UTILIZATION IS  66.67%
 ...... END OF 2-ELECTRON GRADIENT ......
 STEP CPU TIME =     0.00 TOTAL CPU TIME =        0.0 (    0.0 MIN)
 TOTAL WALL CLOCK TIME=        0.0 SECONDS, CPU UTILIZATION IS  66.67%

          ---------------------
          ELECTROSTATIC MOMENTS
          ---------------------

 POINT   1           X           Y           Z (BOHR)    CHARGE
                 0.000719    0.000000    0.192386        0.00 (A.U.)
         DX          DY          DZ         /D/  (DEBYE)
     0.000062   -0.000002    0.016182    0.016182

 UNITS ARE HARTREE/BOHR    E'X               E'Y               E'Z 
    1 CARBON          -0.000215718      -0.000009228      -0.057585457
    2 HYDROGEN         0.000204640       0.030641659       0.028788789
    3 HYDROGEN         0.000011078      -0.030632431       0.028796668
  $VIB   
          IVIB=   1 IATOM=   3 ICOORD=   1 E=      -37.2810866768
 -2.157179631E-04-9.227664637E-06-5.758545664E-02 2.046396413E-04 3.064165852E-02
  2.878878884E-02 1.107832181E-05-3.063243085E-02 2.879666780E-02
  6.219424644E-05-1.988311354E-06 1.618229127E-02
1   ATOM  3
                                        -------------------
   COORD  2                             NUCLEAR COORDINATES
                                        -------------------
     VIB  1

                       ATOM             X              Y              Z

                 1  CARBON           0.000000       0.000000       0.000000
                 2  HYDROGEN         0.000000      -1.566280       1.337737
                 3  HYDROGEN         0.000000       1.576280       1.337737
 ...... END OF ONE-ELECTRON INTEGRALS ......
 STEP CPU TIME =     0.00 TOTAL CPU TIME =        0.0 (    0.0 MIN)
 TOTAL WALL CLOCK TIME=        0.0 SECONDS, CPU UTILIZATION IS  66.67%
 TOTAL NUMBER OF NONZERO TWO-ELECTRON INTEGRALS =                 231
          1 INTEGRAL RECORDS WERE STORED ON DISK FILE  8.
  ...... END OF TWO-ELECTRON INTEGRALS .....
 STEP CPU TIME =     0.00 TOTAL CPU TIME =        0.0 (    0.0 MIN)
 TOTAL WALL CLOCK TIME=        0.0 SECONDS, CPU UTILIZATION IS  66.67%

          ---------------------------
                  UHF SCF CALCULATION
          ---------------------------
     DENSITY MATRIX CONV=  1.00E-05

 ITER EX      TOTAL ENERGY        E CHANGE  DENSITY CHANGE    DIIS ERROR
   1  0      -37.2813747809   -37.2813747809   0.000646416   0.000000000
   2  1      -37.2813757718    -0.0000009909   0.000269642   0.000000000
   3  2      -37.2813759105    -0.0000001387   0.000120672   0.000000000
   4  3      -37.2813759415    -0.0000000311   0.000059067   0.000000000
   5  4      -37.2813759499    -0.0000000084   0.000031054   0.000000000
   6  5      -37.2813759524    -0.0000000026   0.000017425   0.000000000
   7  6      -37.2813759533    -0.0000000009   0.000010120   0.000000000
   8  7      -37.2813759536    -0.0000000003   0.000007059   0.000000000

          -----------------
          DENSITY CONVERGED
          -----------------
     TIME TO FORM FOCK OPERATORS=       0.0 SECONDS (       0.0 SEC/ITER)
     TIME TO SOLVE SCF EQUATIONS=       0.0 SECONDS (       0.0 SEC/ITER)

 FINAL UHF ENERGY IS      -37.2813759536 AFTER   8 ITERATIONS

          --------------------
          SPIN SZ   =    1.000
          S-SQUARED =    2.013
          --------------------
 ...... END OF UHF CALCULATION ......
 STEP CPU TIME =     0.00 TOTAL CPU TIME =        0.0 (    0.0 MIN)
 TOTAL WALL CLOCK TIME=        0.0 SECONDS, CPU UTILIZATION IS  66.67%
 ..... END OF 1-ELECTRON GRADIENT ......
 STEP CPU TIME =     0.00 TOTAL CPU TIME =        0.0 (    0.0 MIN)
 TOTAL WALL CLOCK TIME=        0.0 SECONDS, CPU UTILIZATION IS  66.67%
 ...... END OF 2-ELECTRON GRADIENT ......
 STEP CPU TIME =     0.00 TOTAL CPU TIME =        0.0 (    0.0 MIN)
 TOTAL WALL CLOCK TIME=        0.0 SECONDS, CPU UTILIZATION IS  66.67%

          ---------------------
          ELECTROSTATIC MOMENTS
          ---------------------

 POINT   1           X           Y           Z (BOHR)    CHARGE
                 0.000000    0.000719    0.192386        0.00 (A.U.)
         DX          DY          DZ         /D/  (DEBYE)
     0.000000   -0.000578    0.016122    0.016133

 UNITS ARE HARTREE/BOHR    E'X               E'Y               E'Z 
    1 CARBON           0.000000000      -0.003090832      -0.059408097
    2 HYDROGEN         0.000000000       0.030300282       0.028484244
    3 HYDROGEN         0.000000000      -0.027209450       0.030923854
  $VIB   
          IVIB=   1 IATOM=   3 ICOORD=   2 E=      -37.2813759536
  0.000000000E+00-3.090832164E-03-5.940809748E-02 0.000000000E+00 3.030028206E-02
  2.848424393E-02 0.000000000E+00-2.720944990E-02 3.092385355E-02
  3.674182416E-17-5.775987935E-04 1.612227231E-02
1   ATOM  3
                                        -------------------
   COORD  3                             NUCLEAR COORDINATES
                                        -------------------
     VIB  1

                       ATOM             X              Y              Z

                 1  CARBON           0.000000       0.000000       0.000000
                 2  HYDROGEN         0.000000      -1.566280       1.337737
                 3  HYDROGEN         0.000000       1.566280       1.347737
 ...... END OF ONE-ELECTRON INTEGRALS ......
 STEP CPU TIME =     0.00 TOTAL CPU TIME =        0.0 (    0.0 MIN)
 TOTAL WALL CLOCK TIME=        0.0 SECONDS, CPU UTILIZATION IS  66.67%
 TOTAL NUMBER OF NONZERO TWO-ELECTRON INTEGRALS =                 231
          1 INTEGRAL RECORDS WERE STORED ON DISK FILE  8.
  ...... END OF TWO-ELECTRON INTEGRALS .....
 STEP CPU TIME =     0.00 TOTAL CPU TIME =        0.0 (    0.0 MIN)
 TOTAL WALL CLOCK TIME=        0.0 SECONDS, CPU UTILIZATION IS  66.67%

          ---------------------------
                  UHF SCF CALCULATION
          ---------------------------
     DENSITY MATRIX CONV=  1.00E-05

 ITER EX      TOTAL ENERGY        E CHANGE  DENSITY CHANGE    DIIS ERROR
   1  0      -37.2807870340   -37.2807870340   0.000656151   0.000000000
   2  1      -37.2807878166    -0.0000007826   0.000265256   0.000000000
   3  2      -37.2807879326    -0.0000001159   0.000118605   0.000000000
   4  3      -37.2807879609    -0.0000000283   0.000064982   0.000000000
   5  4      -37.2807879696    -0.0000000087   0.000039253   0.000000000
   6  5      -37.2807879727    -0.0000000031   0.000024567   0.000000000
   7  6      -37.2807879739    -0.0000000012   0.000015706   0.000000000
   8  7      -37.2807879744    -0.0000000005   0.000010159   0.000000000
   9  8      -37.2807879746    -0.0000000002   0.000006611   0.000000000

          -----------------
          DENSITY CONVERGED
          -----------------
     TIME TO FORM FOCK OPERATORS=       0.0 SECONDS (       0.0 SEC/ITER)
     TIME TO SOLVE SCF EQUATIONS=       0.0 SECONDS (       0.0 SEC/ITER)

 FINAL UHF ENERGY IS      -37.2807879746 AFTER   9 ITERATIONS

          --------------------
          SPIN SZ   =    1.000
          S-SQUARED =    2.013
          --------------------
 ...... END OF UHF CALCULATION ......
 STEP CPU TIME =     0.00 TOTAL CPU TIME =        0.0 (    0.0 MIN)
 TOTAL WALL CLOCK TIME=        0.0 SECONDS, CPU UTILIZATION IS  66.67%
 ..... END OF 1-ELECTRON GRADIENT ......
 STEP CPU TIME =     0.00 TOTAL CPU TIME =        0.0 (    0.0 MIN)
 TOTAL WALL CLOCK TIME=        0.0 SECONDS, CPU UTILIZATION IS  66.67%
 ...... END OF 2-ELECTRON GRADIENT ......
 STEP CPU TIME =     0.00 TOTAL CPU TIME =        0.0 (    0.0 MIN)
 TOTAL WALL CLOCK TIME=        0.0 SECONDS, CPU UTILIZATION IS  66.67%

          ---------------------
          ELECTROSTATIC MOMENTS
          ---------------------

 POINT   1           X           Y           Z (BOHR)    CHARGE
                 0.000000    0.000000    0.193105        0.00 (A.U.)
         DX          DY          DZ         /D/  (DEBYE)
     0.000000   -0.000547    0.015385    0.015394

 UNITS ARE HARTREE/BOHR    E'X               E'Y               E'Z 
    1 CARBON           0.000000000      -0.002446641      -0.060009770
    2 HYDROGEN         0.000000000       0.030947045       0.029049950
    3 HYDROGEN         0.000000000      -0.028500405       0.030959820
  $VIB   
          IVIB=   1 IATOM=   3 ICOORD=   3 E=      -37.2807879746
  0.000000000E+00-2.446640609E-03-6.000977006E-02 0.000000000E+00 3.094704536E-02
  2.904995025E-02 0.000000000E+00-2.850040475E-02 3.095981981E-02
  3.671462097E-17-5.465068909E-04 1.538465256E-02
1   ATOM  1
                                        -------------------
   COORD  1                             NUCLEAR COORDINATES
                                        -------------------
     VIB  2

                       ATOM             X              Y              Z

                 1  CARBON          -0.010000       0.000000       0.000000
                 2  HYDROGEN         0.000000      -1.566280       1.337737
                 3  HYDROGEN         0.000000       1.566280       1.337737
 ...... END OF ONE-ELECTRON INTEGRALS ......
 STEP CPU TIME =     0.00 TOTAL CPU TIME =        0.0 (    0.0 MIN)
 TOTAL WALL CLOCK TIME=        0.0 SECONDS, CPU UTILIZATION IS  66.67%
 TOTAL NUMBER OF NONZERO TWO-ELECTRON INTEGRALS =                 315
          1 INTEGRAL RECORDS WERE STORED ON DISK FILE  8.
  ...... END OF TWO-ELECTRON INTEGRALS .....
 STEP CPU TIME =     0.00 TOTAL CPU TIME =        0.0 (    0.0 MIN)
 TOTAL WALL CLOCK TIME=        0.0 SECONDS, CPU UTILIZATION IS  66.67%

          ---------------------------
                  UHF SCF CALCULATION
          ---------------------------
     DENSITY MATRIX CONV=  1.00E-05

 ITER EX      TOTAL ENERGY        E CHANGE  DENSITY CHANGE    DIIS ERROR
   1  0      -37.2810799700   -37.2810799700   0.001741471   0.000000000
   2  1      -37.2810834731    -0.0000035031   0.000843918   0.000000000
   3  2      -37.2810843043    -0.0000008312   0.000412568   0.000000000
   4  3      -37.2810845073    -0.0000002030   0.000202878   0.000000000
   5  4      -37.2810845572    -0.0000000499   0.000100148   0.000000000
   6  5      -37.2810845695    -0.0000000123   0.000049561   0.000000000
   7  6      -37.2810845726    -0.0000000030   0.000024566   0.000000000
   8  7      -37.2810845733    -0.0000000008   0.000012189   0.000000000
   9  8      -37.2810845735    -0.0000000002   0.000006052   0.000000000

          -----------------
          DENSITY CONVERGED
          -----------------
     TIME TO FORM FOCK OPERATORS=       0.0 SECONDS (       0.0 SEC/ITER)
     TIME TO SOLVE SCF EQUATIONS=       0.0 SECONDS (       0.0 SEC/ITER)

 FINAL UHF ENERGY IS      -37.2810845735 AFTER   9 ITERATIONS

          --------------------
          SPIN SZ   =    1.000
          S-SQUARED =    2.013
          --------------------
 ...... END OF UHF CALCULATION ......
 STEP CPU TIME =     0.00 TOTAL CPU TIME =        0.0 (    0.0 MIN)
 TOTAL WALL CLOCK TIME=        0.0 SECONDS, CPU UTILIZATION IS  66.67%
 ..... END OF 1-ELECTRON GRADIENT ......
 STEP CPU TIME =     0.00 TOTAL CPU TIME =        0.0 (    0.0 MIN)
 TOTAL WALL CLOCK TIME=        0.0 SECONDS, CPU UTILIZATION IS  66.67%
 ...... END OF 2-ELECTRON GRADIENT ......
 STEP CPU TIME =     0.00 TOTAL CPU TIME =        0.0 (    0.0 MIN)
 TOTAL WALL CLOCK TIME=        0.0 SECONDS, CPU UTILIZATION IS  66.67%

          ---------------------
          ELECTROSTATIC MOMENTS
          ---------------------

 POINT   1           X           Y           Z (BOHR)    CHARGE
                -0.008562    0.000000    0.192386        0.00 (A.U.)
         DX          DY          DZ         /D/  (DEBYE)
     0.000128    0.000000    0.016178    0.016178

 UNITS ARE HARTREE/BOHR    E'X               E'Y               E'Z 
    1 CARBON          -0.000432367       0.000000000      -0.057594942
    2 HYDROGEN         0.000216183       0.030635025       0.028797471
    3 HYDROGEN         0.000216183      -0.030635025       0.028797471
  $VIB   
          IVIB=   2 IATOM=   1 ICOORD=   1 E=      -37.2810845735
 -4.323666747E-04 0.000000000E+00-5.759494239E-02 2.161833373E-04 3.063502549E-02
  2.879747119E-02 2.161833373E-04-3.063502549E-02 2.879747119E-02
  1.278191914E-04-1.241647940E-14 1.617757728E-02
1   ATOM  1
                                        -------------------
   COORD  2                             NUCLEAR COORDINATES
                                        -------------------
     VIB  2

                       ATOM             X              Y              Z

                 1  CARBON           0.000000      -0.010000       0.000000
                 2  HYDROGEN         0.000000      -1.566280       1.337737
                 3  HYDROGEN         0.000000       1.566280       1.337737
 ...... END OF ONE-ELECTRON INTEGRALS ......
 STEP CPU TIME =     0.00 TOTAL CPU TIME =        0.0 (    0.0 MIN)
 TOTAL WALL CLOCK TIME=        0.0 SECONDS, CPU UTILIZATION IS  66.67%
 TOTAL NUMBER OF NONZERO TWO-ELECTRON INTEGRALS =                 231
          1 INTEGRAL RECORDS WERE STORED ON DISK FILE  8.
  ...... END OF TWO-ELECTRON INTEGRALS .....
 STEP CPU TIME =     0.01 TOTAL CPU TIME =        0.0 (    0.0 MIN)
 TOTAL WALL CLOCK TIME=        0.0 SECONDS, CPU UTILIZATION IS 100.00%

          ---------------------------
                  UHF SCF CALCULATION
          ---------------------------
     DENSITY MATRIX CONV=  1.00E-05

 ITER EX      TOTAL ENERGY        E CHANGE  DENSITY CHANGE    DIIS ERROR
   1  0      -37.2810528699   -37.2810528699   0.001041941   0.000000000
   2  1      -37.2810551730    -0.0000023030   0.000430015   0.000000000
   3  2      -37.2810555299    -0.0000003569   0.000196334   0.000000000
   4  3      -37.2810556176    -0.0000000877   0.000099017   0.000000000
   5  4      -37.2810556435    -0.0000000259   0.000053970   0.000000000
   6  5      -37.2810556519    -0.0000000084   0.000031219   0.000000000
   7  6      -37.2810556548    -0.0000000029   0.000019619   0.000000000
   8  7      -37.2810556558    -0.0000000011   0.000012865   0.000000000
   9  8      -37.2810556562    -0.0000000004   0.000008455   0.000000000
  10  9      -37.2810556564    -0.0000000002   0.000005557   0.000000000

          -----------------
          DENSITY CONVERGED
          -----------------
     TIME TO FORM FOCK OPERATORS=       0.0 SECONDS (       0.0 SEC/ITER)
     TIME TO SOLVE SCF EQUATIONS=       0.0 SECONDS (       0.0 SEC/ITER)

 FINAL UHF ENERGY IS      -37.2810556564 AFTER  10 ITERATIONS

          --------------------
          SPIN SZ   =    1.000
          S-SQUARED =    2.013
          --------------------
 ...... END OF UHF CALCULATION ......
 STEP CPU TIME =     0.00 TOTAL CPU TIME =        0.0 (    0.0 MIN)
 TOTAL WALL CLOCK TIME=        0.0 SECONDS, CPU UTILIZATION IS  75.00%
 ..... END OF 1-ELECTRON GRADIENT ......
 STEP CPU TIME =     0.00 TOTAL CPU TIME =        0.0 (    0.0 MIN)
 TOTAL WALL CLOCK TIME=        0.0 SECONDS, CPU UTILIZATION IS  75.00%
 ...... END OF 2-ELECTRON GRADIENT ......
 STEP CPU TIME =     0.00 TOTAL CPU TIME =        0.0 (    0.0 MIN)
 TOTAL WALL CLOCK TIME=        0.0 SECONDS, CPU UTILIZATION IS  75.00%

          ---------------------
          ELECTROSTATIC MOMENTS
          ---------------------

 POINT   1           X           Y           Z (BOHR)    CHARGE
                 0.000000   -0.008562    0.192386        0.00 (A.U.)
         DX          DY          DZ         /D/  (DEBYE)
     0.000000   -0.001123    0.016164    0.016203

 UNITS ARE HARTREE/BOHR    E'X               E'Y               E'Z 
    1 CARBON           0.000000000      -0.006214753      -0.057521096
    2 HYDROGEN         0.000000000       0.033766737       0.026291243
    3 HYDROGEN         0.000000000      -0.027551984       0.031229853
  $VIB   
          IVIB=   2 IATOM=   1 ICOORD=   2 E=      -37.2810556564
  0.000000000E+00-6.214753220E-03-5.752109570E-02 0.000000000E+00 3.376673724E-02
  2.629124293E-02 0.000000000E+00-2.755198402E-02 3.122985277E-02
  3.659135911E-17-1.123240789E-03 1.616403685E-02
1   ATOM  1
                                        -------------------
   COORD  3                             NUCLEAR COORDINATES
                                        -------------------
     VIB  2

                       ATOM             X              Y              Z

                 1  CARBON           0.000000       0.000000      -0.010000
                 2  HYDROGEN         0.000000      -1.566280       1.337737
                 3  HYDROGEN         0.000000       1.566280       1.337737
 ...... END OF ONE-ELECTRON INTEGRALS ......
 STEP CPU TIME =     0.00 TOTAL CPU TIME =        0.0 (    0.0 MIN)
 TOTAL WALL CLOCK TIME=        0.0 SECONDS, CPU UTILIZATION IS  75.00%
 TOTAL NUMBER OF NONZERO TWO-ELECTRON INTEGRALS =                 228
          1 INTEGRAL RECORDS WERE STORED ON DISK FILE  8.
  ...... END OF TWO-ELECTRON INTEGRALS .....
 STEP CPU TIME =     0.00 TOTAL CPU TIME =        0.0 (    0.0 MIN)
 TOTAL WALL CLOCK TIME=        0.0 SECONDS, CPU UTILIZATION IS  75.00%

          ---------------------------
                  UHF SCF CALCULATION
          ---------------------------
     DENSITY MATRIX CONV=  1.00E-05

 ITER EX      TOTAL ENERGY        E CHANGE  DENSITY CHANGE    DIIS ERROR
   1  0      -37.2804854079   -37.2804854079   0.001231838   0.000000000
   2  1      -37.2804865050    -0.0000010971   0.000382327   0.000000000
   3  2      -37.2804865996    -0.0000000946   0.000131900   0.000000000
   4  3      -37.2804866120    -0.0000000125   0.000049440   0.000000000
   5  4      -37.2804866138    -0.0000000017   0.000019027   0.000000000
   6  5      -37.2804866140    -0.0000000003   0.000007586   0.000000000
   7  6      -37.2804866141     0.0000000000   0.000003171   0.000000000

          -----------------
          DENSITY CONVERGED
          -----------------
     TIME TO FORM FOCK OPERATORS=       0.0 SECONDS (       0.0 SEC/ITER)
     TIME TO SOLVE SCF EQUATIONS=       0.0 SECONDS (       0.0 SEC/ITER)

 FINAL UHF ENERGY IS      -37.2804866141 AFTER   7 ITERATIONS

          --------------------
          SPIN SZ   =    1.000
          S-SQUARED =    2.013
          --------------------
 ...... END OF UHF CALCULATION ......
 STEP CPU TIME =     0.00 TOTAL CPU TIME =        0.0 (    0.0 MIN)
 TOTAL WALL CLOCK TIME=        0.0 SECONDS, CPU UTILIZATION IS  75.00%
 ..... END OF 1-ELECTRON GRADIENT ......
 STEP CPU TIME =     0.00 TOTAL CPU TIME =        0.0 (    0.0 MIN)
 TOTAL WALL CLOCK TIME=        0.0 SECONDS, CPU UTILIZATION IS  75.00%
 ...... END OF 2-ELECTRON GRADIENT ......
 STEP CPU TIME =     0.00 TOTAL CPU TIME =        0.0 (    0.0 MIN)
 TOTAL WALL CLOCK TIME=        0.0 SECONDS, CPU UTILIZATION IS  75.00%

          ---------------------
          ELECTROSTATIC MOMENTS
          ---------------------

 POINT   1           X           Y           Z (BOHR)    CHARGE
                 0.000000    0.000000    0.183824        0.00 (A.U.)
         DX          DY          DZ         /D/  (DEBYE)
     0.000000    0.000000    0.014593    0.014593

 UNITS ARE HARTREE/BOHR    E'X               E'Y               E'Z 
    1 CARBON           0.000000000       0.000000000      -0.062439176
    2 HYDROGEN         0.000000000       0.028806964       0.031219588
    3 HYDROGEN         0.000000000      -0.028806964       0.031219588
  $VIB   
          IVIB=   2 IATOM=   1 ICOORD=   3 E=      -37.2804866141
  0.000000000E+00 0.000000000E+00-6.243917556E-02 0.000000000E+00 2.880696441E-02
  3.121958778E-02 0.000000000E+00-2.880696441E-02 3.121958778E-02
  3.682141308E-17 1.693156282E-15 1.459320623E-02
1   ATOM  3
                                        -------------------
   COORD  1                             NUCLEAR COORDINATES
                                        -------------------
     VIB  2

                       ATOM             X              Y              Z

                 1  CARBON           0.000000       0.000000       0.000000
                 2  HYDROGEN         0.000000      -1.566280       1.337737
                 3  HYDROGEN        -0.010000       1.566280       1.337737
 ...... END OF ONE-ELECTRON INTEGRALS ......
 STEP CPU TIME =     0.00 TOTAL CPU TIME =        0.0 (    0.0 MIN)
 TOTAL WALL CLOCK TIME=        0.0 SECONDS, CPU UTILIZATION IS  75.00%
 TOTAL NUMBER OF NONZERO TWO-ELECTRON INTEGRALS =                 283
          1 INTEGRAL RECORDS WERE STORED ON DISK FILE  8.
  ...... END OF TWO-ELECTRON INTEGRALS .....
 STEP CPU TIME =     0.00 TOTAL CPU TIME =        0.0 (    0.0 MIN)
 TOTAL WALL CLOCK TIME=        0.0 SECONDS, CPU UTILIZATION IS  75.00%

          ---------------------------
                  UHF SCF CALCULATION
          ---------------------------
     DENSITY MATRIX CONV=  1.00E-05

 ITER EX      TOTAL ENERGY        E CHANGE  DENSITY CHANGE    DIIS ERROR
   1  0      -37.2810835901   -37.2810835901   0.001626785   0.000000000
   2  1      -37.2810858400    -0.0000022499   0.000827653   0.000000000
   3  2      -37.2810864430    -0.0000006030   0.000425387   0.000000000
   4  3      -37.2810866102    -0.0000001671   0.000220617   0.000000000
   5  4      -37.2810866575    -0.0000000474   0.000115299   0.000000000
   6  5      -37.2810866712    -0.0000000137   0.000060659   0.000000000
   7  6      -37.2810866752    -0.0000000040   0.000032099   0.000000000
   8  7      -37.2810866764    -0.0000000012   0.000017075   0.000000000
   9  8      -37.2810866767    -0.0000000004   0.000009126   0.000000000
  10  9      -37.2810866768    -0.0000000001   0.000004898   0.000000000

          -----------------
          DENSITY CONVERGED
          -----------------
     TIME TO FORM FOCK OPERATORS=       0.0 SECONDS (       0.0 SEC/ITER)
     TIME TO SOLVE SCF EQUATIONS=       0.0 SECONDS (       0.0 SEC/ITER)

 FINAL UHF ENERGY IS      -37.2810866768 AFTER  10 ITERATIONS

          --------------------
          SPIN SZ   =    1.000
          S-SQUARED =    2.013
          --------------------
 ...... END OF UHF CALCULATION ......
 STEP CPU TIME =     0.00 TOTAL CPU TIME =        0.0 (    0.0 MIN)
 TOTAL WALL CLOCK TIME=        0.0 SECONDS, CPU UTILIZATION IS  75.00%
 ..... END OF 1-ELECTRON GRADIENT ......
 STEP CPU TIME =     0.00 TOTAL CPU TIME =        0.0 (    0.0 MIN)
 TOTAL WALL CLOCK TIME=        0.0 SECONDS, CPU UTILIZATION IS  75.00%
 ...... END OF 2-ELECTRON GRADIENT ......
 STEP CPU TIME =     0.00 TOTAL CPU TIME =        0.0 (    0.0 MIN)
 TOTAL WALL CLOCK TIME=        0.0 SECONDS, CPU UTILIZATION IS  75.00%

          ---------------------
          ELECTROSTATIC MOMENTS
          ---------------------

 POINT   1           X           Y           Z (BOHR)    CHARGE
                -0.000719    0.000000    0.192386        0.00 (A.U.)
         DX          DY          DZ         /D/  (DEBYE)
    -0.000062   -0.000002    0.016182    0.016182

 UNITS ARE HARTREE/BOHR    E'X               E'Y               E'Z 
    1 CARBON           0.000215718      -0.000009228      -0.057585457
    2 HYDROGEN        -0.000204640       0.030641659       0.028788789
    3 HYDROGEN        -0.000011078      -0.030632431       0.028796668
  $VIB   
          IVIB=   2 IATOM=   3 ICOORD=   1 E=      -37.2810866768
  2.157179631E-04-9.227664639E-06-5.758545664E-02-2.046396413E-04 3.064165852E-02
  2.878878884E-02-1.107832181E-05-3.063243085E-02 2.879666780E-02
 -6.219424644E-05-1.988311358E-06 1.618229127E-02
1   ATOM  3
                                        -------------------
   COORD  2                             NUCLEAR COORDINATES
                                        -------------------
     VIB  2

                       ATOM             X              Y              Z

                 1  CARBON           0.000000       0.000000       0.000000
                 2  HYDROGEN         0.000000      -1.566280       1.337737
                 3  HYDROGEN         0.000000       1.556280       1.337737
 ...... END OF ONE-ELECTRON INTEGRALS ......
 STEP CPU TIME =     0.00 TOTAL CPU TIME =        0.0 (    0.0 MIN)
 TOTAL WALL CLOCK TIME=        0.0 SECONDS, CPU UTILIZATION IS  75.00%
 TOTAL NUMBER OF NONZERO TWO-ELECTRON INTEGRALS =                 231
          1 INTEGRAL RECORDS WERE STORED ON DISK FILE  8.
  ...... END OF TWO-ELECTRON INTEGRALS .....
 STEP CPU TIME =     0.00 TOTAL CPU TIME =        0.0 (    0.0 MIN)
 TOTAL WALL CLOCK TIME=        0.0 SECONDS, CPU UTILIZATION IS  75.00%

          ---------------------------
                  UHF SCF CALCULATION
          ---------------------------
     DENSITY MATRIX CONV=  1.00E-05

 ITER EX      TOTAL ENERGY        E CHANGE  DENSITY CHANGE    DIIS ERROR
   1  0      -37.2807617927   -37.2807617927   0.000651977   0.000000000
   2  1      -37.2807627961    -0.0000010033   0.000270401   0.000000000
   3  2      -37.2807629369    -0.0000001408   0.000120691   0.000000000
   4  3      -37.2807629685    -0.0000000316   0.000059016   0.000000000
   5  4      -37.2807629771    -0.0000000086   0.000031434   0.000000000
   6  5      -37.2807629797    -0.0000000026   0.000017865   0.000000000
   7  6      -37.2807629806    -0.0000000009   0.000010665   0.000000000
   8  7      -37.2807629810    -0.0000000003   0.000007526   0.000000000

          -----------------
          DENSITY CONVERGED
          -----------------
     TIME TO FORM FOCK OPERATORS=       0.0 SECONDS (       0.0 SEC/ITER)
     TIME TO SOLVE SCF EQUATIONS=       0.0 SECONDS (       0.0 SEC/ITER)

 FINAL UHF ENERGY IS      -37.2807629810 AFTER   8 ITERATIONS

          --------------------
          SPIN SZ   =    1.000
          S-SQUARED =    2.013
          --------------------
 ...... END OF UHF CALCULATION ......
 STEP CPU TIME =     0.01 TOTAL CPU TIME =        0.0 (    0.0 MIN)
 TOTAL WALL CLOCK TIME=        0.0 SECONDS, CPU UTILIZATION IS 100.00%
 ..... END OF 1-ELECTRON GRADIENT ......
 STEP CPU TIME =     0.00 TOTAL CPU TIME =        0.0 (    0.0 MIN)
 TOTAL WALL CLOCK TIME=        0.0 SECONDS, CPU UTILIZATION IS 100.00%
 ...... END OF 2-ELECTRON GRADIENT ......
 STEP CPU TIME =     0.00 TOTAL CPU TIME =        0.0 (    0.0 MIN)
 TOTAL WALL CLOCK TIME=        0.0 SECONDS, CPU UTILIZATION IS 100.00%

          ---------------------
          ELECTROSTATIC MOMENTS
          ---------------------

 POINT   1           X           Y           Z (BOHR)    CHARGE
                 0.000000   -0.000719    0.192386        0.00 (A.U.)
         DX          DY          DZ         /D/  (DEBYE)
     0.000000    0.000550    0.016246    0.016255

 UNITS ARE HARTREE/BOHR    E'X               E'Y               E'Z 
    1 CARBON           0.000000000       0.003125653      -0.055695059
    2 HYDROGEN         0.000000000       0.030988877       0.029095995
    3 HYDROGEN         0.000000000      -0.034114530       0.026599065
  $VIB   
          IVIB=   2 IATOM=   3 ICOORD=   2 E=      -37.2807629810
  0.000000000E+00 3.125652840E-03-5.569505940E-02 0.000000000E+00 3.098887741E-02
  2.909599453E-02 0.000000000E+00-3.411453025E-02 2.659906487E-02
  3.666972166E-17 5.502746735E-04 1.624599143E-02
1   ATOM  3
                                        -------------------
   COORD  3                             NUCLEAR COORDINATES
                                        -------------------
     VIB  2

                       ATOM             X              Y              Z

                 1  CARBON           0.000000       0.000000       0.000000
                 2  HYDROGEN         0.000000      -1.566280       1.337737
                 3  HYDROGEN         0.000000       1.566280       1.327737
 ...... END OF ONE-ELECTRON INTEGRALS ......
 STEP CPU TIME =     0.00 TOTAL CPU TIME =        0.0 (    0.0 MIN)
 TOTAL WALL CLOCK TIME=        0.0 SECONDS, CPU UTILIZATION IS 100.00%
 TOTAL NUMBER OF NONZERO TWO-ELECTRON INTEGRALS =                 231
          1 INTEGRAL RECORDS WERE STORED ON DISK FILE  8.
  ...... END OF TWO-ELECTRON INTEGRALS .....
 STEP CPU TIME =     0.00 TOTAL CPU TIME =        0.0 (    0.0 MIN)
 TOTAL WALL CLOCK TIME=        0.0 SECONDS, CPU UTILIZATION IS 100.00%

          ---------------------------
                  UHF SCF CALCULATION
          ---------------------------
     DENSITY MATRIX CONV=  1.00E-05

 ITER EX      TOTAL ENERGY        E CHANGE  DENSITY CHANGE    DIIS ERROR
   1  0      -37.2813627671   -37.2813627671   0.000665787   0.000000000
   2  1      -37.2813635600    -0.0000007929   0.000268506   0.000000000
   3  2      -37.2813636773    -0.0000001173   0.000119662   0.000000000
   4  3      -37.2813637058    -0.0000000285   0.000064661   0.000000000
   5  4      -37.2813637145    -0.0000000087   0.000038951   0.000000000
   6  5      -37.2813637176    -0.0000000031   0.000024308   0.000000000
   7  6      -37.2813637188    -0.0000000012   0.000015493   0.000000000
   8  7      -37.2813637192    -0.0000000005   0.000009990   0.000000000
   9  8      -37.2813637194    -0.0000000002   0.000006480   0.000000000

          -----------------
          DENSITY CONVERGED
          -----------------
     TIME TO FORM FOCK OPERATORS=       0.0 SECONDS (       0.0 SEC/ITER)
     TIME TO SOLVE SCF EQUATIONS=       0.0 SECONDS (       0.0 SEC/ITER)

 FINAL UHF ENERGY IS      -37.2813637194 AFTER   9 ITERATIONS

          --------------------
          SPIN SZ   =    1.000
          S-SQUARED =    2.013
          --------------------
 ...... END OF UHF CALCULATION ......
 STEP CPU TIME =     0.00 TOTAL CPU TIME =        0.0 (    0.0 MIN)
 TOTAL WALL CLOCK TIME=        0.0 SECONDS, CPU UTILIZATION IS 100.00%
 ..... END OF 1-ELECTRON GRADIENT ......
 STEP CPU TIME =     0.00 TOTAL CPU TIME =        0.0 (    0.0 MIN)
 TOTAL WALL CLOCK TIME=        0.0 SECONDS, CPU UTILIZATION IS 100.00%
 ...... END OF 2-ELECTRON GRADIENT ......
 STEP CPU TIME =     0.00 TOTAL CPU TIME =        0.0 (    0.0 MIN)
 TOTAL WALL CLOCK TIME=        0.0 SECONDS, CPU UTILIZATION IS 100.00%

          ---------------------
          ELECTROSTATIC MOMENTS
          ---------------------

 POINT   1           X           Y           Z (BOHR)    CHARGE
                 0.000000    0.000000    0.191667        0.00 (A.U.)
         DX          DY          DZ         /D/  (DEBYE)
     0.000000    0.000515    0.016974    0.016982

 UNITS ARE HARTREE/BOHR    E'X               E'Y               E'Z 
    1 CARBON           0.000000000       0.002491261      -0.055134249
    2 HYDROGEN         0.000000000       0.030334513       0.028527291
    3 HYDROGEN         0.000000000      -0.032825774       0.026606958
  $VIB   
          IVIB=   2 IATOM=   3 ICOORD=   3 E=      -37.2813637194
  0.000000000E+00 2.491260532E-03-5.513424876E-02 0.000000000E+00 3.033451339E-02
  2.852729104E-02 0.000000000E+00-3.282577392E-02 2.660695771E-02
  3.669704205E-17 5.145018962E-04 1.697402650E-02
 ...... END OF NUMERICAL HESSIAN CALCULATION ......
 STEP CPU TIME =     0.00 TOTAL CPU TIME =        0.0 (    0.0 MIN)
 TOTAL WALL CLOCK TIME=        0.0 SECONDS, CPU UTILIZATION IS 100.00%

          ---------------
          ENERGY GRADIENT
          ---------------

 UNITS ARE HARTREE/BOHR    E'X               E'Y               E'Z 
    1 CARBON           0.000000000       0.000000000      -0.057578167
    2 HYDROGEN         0.000000000       0.030642200       0.028789084
    3 HYDROGEN         0.000000000      -0.030642200       0.028789084

          -------------------------------
          CARTESIAN FORCE CONSTANT MATRIX
          -------------------------------

                                   1                          2
                               CARBON                     HYDROGEN  
                          X        Y        Z        X        Y        Z
  1   CARBON       X 0.043237 0.000000 0.000000-0.021595 0.000000 0.000000
                   Y 0.000000 0.621475 0.000000 0.000000-0.310781 0.246913
                   Z 0.000000 0.000000 0.487568 0.000000 0.185646-0.243780
  2   HYDROGEN     X-0.021595 0.000000 0.000000 0.001108 0.000000 0.000000
                   Y 0.000000-0.310781 0.185646 0.000000 0.345254-0.216254
                   Z 0.000000 0.246913-0.243780 0.000000-0.216254 0.217643
  3   HYDROGEN     X-0.021595 0.000000 0.000000 0.020464 0.000000 0.000000
                   Y 0.000000-0.310781-0.185646 0.000000-0.034430-0.030607
                   Z 0.000000-0.246913-0.243780 0.000000 0.030607 0.026133

                                   3
                               HYDROGEN  
                          X        Y        Z
  3   HYDROGEN     X 0.001108 0.000000 0.000000
                   Y 0.000000 0.345254 0.216254
                   Z 0.000000 0.216254 0.217643

          ------------------------          ----------------
          DIPOLE DERIVATIVE TENSOR          (DEBYE/ANGSTROM)
          ------------------------          ----------------

        ATOM                 MU-X           MU-Y           MU-Z
     CARBON     D/DX    -0.024154325    0.000000000    0.000000000
                D/DY     0.000000000    0.212261731    0.000000000
                D/DZ     0.000000000    0.000000000    0.300263609
     HYDROGEN   D/DX     0.011753008    0.000000000    0.000000000
                D/DY     0.000000000   -0.106568590    0.011689762
                D/DZ     0.000000000    0.100250794   -0.150174062
     HYDROGEN   D/DX     0.011753008    0.000000000    0.000000000
                D/DY     0.000000000   -0.106568590   -0.011689762
                D/DZ     0.000000000   -0.100250794   -0.150174062

          --------------------------------------------------------
          NORMAL COORDINATE ANALYSIS IN THE HARMONIC APPROXIMATION
          --------------------------------------------------------

     *******************************************************
     * THIS IS NOT A STATIONARY POINT ON THE MOLECULAR PES *
     *     THE VIBRATIONAL ANALYSIS IS NOT VALID !!!       *
     *******************************************************

          ATOMIC WEIGHTS (AMU)

    1     CARBON           12.00000
    2     HYDROGEN          1.00782
    3     HYDROGEN          1.00782

 MODES 1 TO 6 ARE TAKEN AS ROTATIONS AND TRANSLATIONS.

 ANALYZING SYMMETRY OF NORMAL MODES...

 --- SYMMETRY FOR NORMAL MODES ---
 INCLUDING TRANSLATION AND ROTATION
    3*A1     1*A2     2*B1     3*B2  
 EXCLUDING TRANSLATION AND ROTATION (SAYVETZ < 0.01)
    2*A1     0*A2     0*B1     0*B2  

     FREQUENCIES IN CM**-1, IR INTENSITIES IN DEBYE**2/AMU-ANGSTROM**2,
     REDUCED MASSES IN AMU.

     *******************************************************
     * THIS IS NOT A STATIONARY POINT ON THE MOLECULAR PES *
     *     THE VIBRATIONAL ANALYSIS IS NOT VALID !!!       *
     *******************************************************

                          1           2           3           4           5
       FREQUENCY:       712.40      279.34        0.31        0.02        2.47  
        SYMMETRY:         A2          B2          B1          A1          B2  
    REDUCED MASS:      1.00782     1.05988     4.66662     4.67175     4.59932
    IR INTENSITY:      0.00000     0.00035     0.00000     0.00000     0.00000

  1   CARBON       X  0.00000000  0.00000000  0.26707054 -0.00000002  0.00000002
                   Y  0.00000000 -0.06684660 -0.00000002  0.00000000  0.26653178
                   Z  0.00000000  0.00000000  0.00000002  0.26711095  0.00000000
  2   HYDROGEN     X  0.70435636  0.00000000  0.26735858 -0.00000002  0.00000002
                   Y  0.00000000  0.38154265 -0.00000002  0.00000392  0.27049359
                   Z  0.00000000  0.56915766  0.00000002  0.26711818  0.00503483
  3   HYDROGEN     X -0.70435636  0.00000000  0.26735858 -0.00000002  0.00000002
                   Y  0.00000000  0.38154265 -0.00000002 -0.00000392  0.27049359
                   Z  0.00000000 -0.56915766  0.00000003  0.26711818 -0.00503484

 TRANS. SAYVETZ    X  0.00000000  0.00000000  3.74374785 -0.00000035  0.00000023
                   Y  0.00000000 -0.03310276 -0.00000023  0.00000004  3.74360177
                   Z  0.00000000  0.00000000  0.00000035  3.74374812 -0.00000004
               TOTAL  0.00000000  0.03310276  3.74374785  3.74374812  3.74360177

   ROT. SAYVETZ    X  0.00000000 -2.83203621  0.00000000  0.00000000 -0.02504170
                   Y  0.00000000  0.00000000  0.00066496  0.00000000  0.00000000
                   Z  2.22370462  0.00000000  0.00000000  0.00000000  0.00000000
               TOTAL  2.22370462  2.83203621  0.00066496  0.00000000  0.02504170

                          6           7           8           9
       FREQUENCY:       812.90     1817.81     3757.13     3823.28  
        SYMMETRY:         B1          A1          A1          B2  
    REDUCED MASS:      1.16106     1.09670     1.06165     1.10268
    IR INTENSITY:      0.00032     0.02859     0.02395     0.04589

  1   CARBON       X -0.10957489  0.00000000  0.00000000  0.00000000
                   Y  0.00000000  0.00000000  0.00000000 -0.08846285
                   Z  0.00000000 -0.08586445 -0.06791444  0.00000000
  2   HYDROGEN     X  0.65164198  0.00000000  0.00000000  0.00000000
                   Y  0.00000000  0.43695995 -0.55243450  0.52666526
                   Z  0.00000000  0.51116643  0.40431997 -0.41491215
  3   HYDROGEN     X  0.65164198  0.00000000  0.00000000  0.00000000
                   Y  0.00000000 -0.43695995  0.55243450  0.52666526
                   Z  0.00000000  0.51116643  0.40431997  0.41491215

 TRANS. SAYVETZ    X -0.00141659  0.00000000  0.00000000  0.00000000
                   Y  0.00000000  0.00000000  0.00000000  0.00001864
                   Z  0.00000000 -0.00004084 -0.00000573  0.00000000
               TOTAL  0.00141659  0.00004084  0.00000573  0.00001864

   ROT. SAYVETZ    X  0.00000000  0.00000000  0.00000000 -0.11019366
                   Y  1.75736624  0.00000000  0.00000000  0.00000000
                   Z  0.00000000  0.00000000  0.00000000  0.00000000
               TOTAL  1.75736624  0.00000000  0.00000000  0.11019366

 REFERENCE ON SAYVETZ CONDITIONS - A. SAYVETZ, J.CHEM.PHYS., 7, 383-389(1939).

 NOTE - THE MODES J,K ARE ORTHONORMALIZED ACCORDING TO
 SUM ON I   M(I) * (X(I,J)*X(I,K) + Y(I,J)*Y(I,K) + Z(I,J)*Z(I,K)) = DELTA(J,K)

  MODE FREQ(CM**-1)  SYMMETRY  RED. MASS  IR INTENS.
     1     712.395    A2       1.007825    0.000000
     2     279.337    B2       1.059885    0.000346
     3       0.308    B1       4.666619    0.000000
     4       0.021    A1       4.671751    0.000000
     5       2.470    B2       4.599320    0.000000
     6     812.902    B1       1.161061    0.000323
     7    1817.805    A1       1.096704    0.028593
     8    3757.127    A1       1.061651    0.023946
     9    3823.280    B2       1.102679    0.045890

     -------------------------------
     THERMOCHEMISTRY AT T=  298.15 K
     -------------------------------

 USING IDEAL GAS, RIGID ROTOR, HARMONIC NORMAL MODE APPROXIMATIONS.
 P=  1.01325E+05 PASCAL.
 ALL FREQUENCIES ARE SCALED BY   1.00000
 THE MOMENTS OF INERTIA ARE (IN AMU*BOHR**2)
      3.08834     4.94486     8.03320
 THE ROTATIONAL SYMMETRY NUMBER IS  2.0
 THE ROTATIONAL CONSTANTS ARE (IN GHZ)
    583.83800   364.63872   224.45458
 THE HARMONIC ZERO POINT ENERGY IS (SCALED BY   1.000)
        0.021411 HARTREE/MOLECULE     4699.106235 CM**-1/MOLECULE 
       13.435432 KCAL/MOL               56.213849 KJ/MOL

               Q               LN Q
 ELEC.     3.00000E+00       1.098612
 TRANS.    2.06240E+06      14.539383
 ROT.      6.26895E+01       4.138195
 VIB.      1.00016E+00       0.000155
 TOT.      3.87933E+08      19.776344

              E         H         G         CV        CP        S
           KJ/MOL    KJ/MOL    KJ/MOL   J/MOL-K   J/MOL-K   J/MOL-K
 ELEC.      0.000     0.000    -2.723     0.000     0.000     9.134
 TRANS.     3.718     6.197   -36.042    12.472    20.786   141.672
 ROT.       3.718     3.718   -10.258    12.472    12.472    46.878
 VIB.      56.217    56.217    56.213     0.099     0.099     0.013
 TOTAL     63.654    66.133     7.189    25.042    33.357   197.698
 VIB. THERMAL CORRECTION E(T)-E(0) = H(T)-H(0) =     3.372 J/MOL

              E         H         G         CV        CP        S
         KCAL/MOL  KCAL/MOL  KCAL/MOL CAL/MOL-K CAL/MOL-K CAL/MOL-K
 ELEC.      0.000     0.000    -0.651     0.000     0.000     2.183
 TRANS.     0.889     1.481    -8.614     2.981     4.968    33.861
 ROT.       0.889     0.889    -2.452     2.981     2.981    11.204
 VIB.      13.436    13.436    13.435     0.024     0.024     0.003
 TOTAL     15.214    15.806     1.718     5.985     7.972    47.251
 VIB. THERMAL CORRECTION E(T)-E(0) = H(T)-H(0) =     0.806 CAL/MOL

     *******************************************************
     * THIS IS NOT A STATIONARY POINT ON THE MOLECULAR PES *
     *     THE VIBRATIONAL ANALYSIS IS NOT VALID !!!       *
     *******************************************************
 ......END OF NORMAL COORDINATE ANALYSIS......
 STEP CPU TIME =     0.00 TOTAL CPU TIME =        0.0 (    0.0 MIN)
 TOTAL WALL CLOCK TIME=        0.0 SECONDS, CPU UTILIZATION IS  80.00%

          -------------------------
          BOYS ORBITAL LOCALIZATION
          -------------------------
          S.F.BOYS, IN "QUANTUM THEORY OF ATOMS, MOLECULES, AND SOLIDS"
          P.O.LOWDIN, ED. ACADEMIC PRESS, NY, 1966 PP253-266.

          ***** ALPHA ORBITAL LOCALIZATION *****

          THIS LOCALIZATION REQUIRES       261 WORDS OF MEMORY.
          THIS LOCALIZATION HAS   5 ORBITALS, OF WHICH   1 ARE FROZEN.

          THE INITIAL LOCALIZATION SUM IS      2.540641 DEBYE**2
          BOYS ITERATION  10 ORBITAL CHANGE=    4.5808631848E-07
          LOCALIZATION CONVERGED IN  16 ITERATIONS
            THE FINAL LOCALIZATION SUM IS     30.557789 DEBYE**2

          THE BOYS LOCALIZED ORBITALS ARE

                      1          2          3          4          5

    1  C  1  S   -0.982876   0.113334   0.113341  -0.180985  -0.180985
    2  C  1  S   -0.066049  -0.247705  -0.247887   0.606582   0.606582
    3  C  1  X    0.000000   0.000000   0.000000  -0.707107   0.707107
    4  C  1  Y    0.000000   0.420481  -0.420988  -0.000167  -0.000167
    5  C  1  Z   -0.010442  -0.329852  -0.329110  -0.435525  -0.435525
    6  H  2  S    0.016514  -0.533524   0.065541  -0.069173  -0.069173
    7  H  3  S    0.016514   0.064844  -0.533548  -0.069410  -0.069410

          ****** BETA ORBITAL LOCALIZATION *****

          THIS LOCALIZATION REQUIRES       200 WORDS OF MEMORY.
          THIS LOCALIZATION HAS   3 ORBITALS, OF WHICH   1 ARE FROZEN.

          THE INITIAL LOCALIZATION SUM IS      5.985292 DEBYE**2
          LOCALIZATION CONVERGED IN   2 ITERATIONS
            THE FINAL LOCALIZATION SUM IS     25.144615 DEBYE**2

          THE BOYS LOCALIZED ORBITALS ARE

                      1          2          3

    1  C  1  S   -0.984294   0.149791   0.149709
    2  C  1  S   -0.061151  -0.365327  -0.365127
    3  C  1  X    0.000000   0.000000   0.000000
    4  C  1  Y    0.000000   0.349423  -0.349614
    5  C  1  Z   -0.010356  -0.148599  -0.148518
    6  H  2  S    0.015710  -0.598081   0.110975
    7  H  3  S    0.015710   0.110648  -0.598142
 ...... END OF ORBITAL LOCALIZATION ......
 STEP CPU TIME =     0.00 TOTAL CPU TIME =        0.0 (    0.0 MIN)
 TOTAL WALL CLOCK TIME=        0.0 SECONDS, CPU UTILIZATION IS  80.00%
                580000  WORDS OF DYNAMIC MEMORY USED
 EXECUTION OF GAMESS TERMINATED NORMALLY Wed May  1 18:02:19 2013
 DDI: 263624 bytes (0.3 MB / 0 MWords) used by master data server.

 ----------------------------------------
 CPU timing information for all processes
 ========================================
 0: 0.25 + 0.22 = 0.48
 1: 0.00 + 0.01 = 0.01
 ----------------------------------------
 ddikick.x: exited gracefully.
unset echo
----- accounting info -----
Files used on the master node iMac-de-Eric-28321.local were:
-rw-r--r--@ 1 henon  staff     1044  1 mai 18:02 .//exam02.F05
-rw-r--r--  1 henon  staff   180016  1 mai 18:02 .//exam02.F08
-rw-r--r--  1 henon  staff  1897760  1 mai 18:02 .//exam02.F10
-rw-r--r--  1 henon  staff     8770  1 mai 18:02 .//exam02.dat
-rw-r--r--@ 1 henon  staff     1044  1 mai 18:02 .//exam02.inp
-rw-r--r--  1 henon  staff    85190  1 mai 18:02 .//exam02.log
-rw-r--r--  1 henon  staff     3525  1 mai 18:02 .//exam02.rst
ls: No match.
ls: No match.
ls: No match.
Mer  1 mai 2013 18:02:23 CEST
0.060u 0.044s 0:03.12 3.2%	0+0k 0+3io 0pf+0w
