
 Primary working directories    : /scratch_p/cours/31316
 Secondary working directories  : /scratch_p/cours/31316
 Wavefunction directory         : /home/cours/wfu/
 Main file repository           : /scratch_p/cours/31316/

 SHA1      : c1281485f5ab15cf3ef7a6651587cbc70f616fdb
 NAME      : 2015.1.34
 ARCHNAME  : linux/x86_64
 FC        : /apps/intel/2018.3//compilers_and_libraries_2018.3.222/linux/mpi/intel64/bin/mpiifort
 BLASLIB   : -L/apps/intel/2018.3/mkl/lib/intel64 -lmkl_intel_ilp64 -lmkl_intel_thread -lmkl_core
 id        : vlad

 Nodes             nprocs
 romeo113.ro18.urca    1

 Using customized tuning parameters: mindgm=1; mindgv=20; mindgc=4; mindgr=1; noblas=0; minvec=7
 default implementation of scratch files=df  

 ***,optimisation
 memory,100,m;
 GPRINT,orbitals,civector,basis
 nosym
 ANGSTROM
 orient,mass
 geomtyp=xyz
 geometry={
 3
 C     0.000000     0.000000     0.000000
 H     0.000000     0.000000     1.089000
 H     1.026720     0.000000    -0.362996
 }
 
 basis=STO-3G;
 endbasis;
 
 {uhf;wf,8,1,2;}
 optg,savexyz=ch2.xyz;
 frequencies,analytical;
 thermo
 put,molden,test.molden;

 Variables initialized (889), CPU time= 0.00 sec
 Commands  initialized (702), CPU time= 0.01 sec, 572 directives.
 Default parameters read. Elapsed time= 0.06 sec

 Checking input...
 Passed
1


                                         ***  PROGRAM SYSTEM MOLPRO  ***
                                       Copyright, TTI GmbH Stuttgart, 2015
                                    Version 2015.1 linked Aug  2 2018 18:31:50


 **********************************************************************************************************************************
 LABEL *   optimisation                                                                  
  64 bit serial version                                                                  DATE: 06-May-19          TIME: 10:03:54  
 **********************************************************************************************************************************

 SHA1:             c1281485f5ab15cf3ef7a6651587cbc70f616fdb
 **********************************************************************************************************************************


 Variable memory set to  100000000 words,  buffer space   230000 words

 SETTING GEOMTYP        =    XYZ
 ZSYMEL=NOSYM
 ZCENTRE=MASS
 ZUNIT=ANG
 
 SETTING BASIS          =    STO-3G


 Recomputing integrals since basis changed


 Using spherical harmonics

 Library entry C      S STO-3G               selected for orbital group  1
 Library entry C      P STO-3G               selected for orbital group  1
 Library entry H      S STO-3G               selected for orbital group  2


 PROGRAM * SEWARD (Integral evaluation for generally contracted gaussian basis sets)     Author: Roland Lindh, 1990

 Geometry written to block  1 of record 700

 Orientation using atomic masses  
 Molecule type: Asymmetric top
 Rotational constants:     222.0326455    317.0949597    740.6240145 GHz  (calculated with average atomic masses)

 Point group  C1  



 ATOMIC COORDINATES

 NR  ATOM    CHARGE       X              Y              Z

   1  C       6.00    0.000000000    0.170753959   -0.000000126
   2  H       1.00    0.000000000   -1.017384330    1.680276094
   3  H       1.00    0.000000000   -1.017385394   -1.680274590

 Bond lengths in Bohr (Angstrom)

 1-2  2.057911750  1-3  2.057910929
     ( 1.089000000)     ( 1.088999566)

 Bond angles

  2-1-3  109.47100549


 BASIS DATA

   Nr Sym  Nuc  Type         Exponents   Contraction coefficients

    1.1 A     1  1s          71.616837     0.154329
                             13.045096     0.535328
                              3.530512     0.444635
    2.1 A     1  1s           2.941249    -0.099967
                              0.683483     0.399513
                              0.222290     0.700115
    3.1 A     1  2px          2.941249     0.155916
                              0.683483     0.607684
                              0.222290     0.391957
    4.1 A     1  2py          2.941249     0.155916
                              0.683483     0.607684
                              0.222290     0.391957
    5.1 A     1  2pz          2.941249     0.155916
                              0.683483     0.607684
                              0.222290     0.391957
    6.1 A     2  1s           3.425251     0.154329
                              0.623914     0.535328
                              0.168855     0.444635
    7.1 A     3  1s           3.425251     0.154329
                              0.623914     0.535328
                              0.168855     0.444635

 NUCLEAR CHARGE:                    8
 NUMBER OF PRIMITIVE AOS:          21
 NUMBER OF SYMMETRY AOS:           21
 NUMBER OF CONTRACTIONS:            7   (   7A   )
 NUMBER OF CORE ORBITALS:           1   (   1A   )
 NUMBER OF VALENCE ORBITALS:        6   (   6A   )


 NUCLEAR REPULSION ENERGY    6.12872528

 EXTRA SYMMETRY OF AOS IN SYMMETRY 1:   1 1 2 1 1 1 1

 Eigenvalues of metric

         1 0.272E+00 0.369E+00 0.867E+00 0.100E+01 0.110E+01 0.146E+01 0.193E+01


 Contracted 2-electron integrals neglected if value below      1.0D-11
 AO integral compression algorithm  1   Integral accuracy      1.0D-11

     0.262 MB (compressed) written to integral file (100.0%)


 NUMBER OF SORTED TWO-ELECTRON INTEGRALS:        406.     BUFFER LENGTH:  32768
 NUMBER OF SEGMENTS:   1  SEGMENT LENGTH:        406      RECORD LENGTH: 524288

 Memory used in sort:       0.56 MW

 SORT1 READ         543. AND WROTE         231. INTEGRALS IN      1 RECORDS. CPU TIME:     0.01 SEC, REAL TIME:     0.00 SEC
 SORT2 READ         231. AND WROTE         406. INTEGRALS IN      1 RECORDS. CPU TIME:     0.00 SEC, REAL TIME:     0.01 SEC

 FILE SIZES:   FILE 1:    20.1 MBYTE,  FILE 4:     4.2 MBYTE,   TOTAL:     24.4 MBYTE

 OPERATOR DM      FOR CENTER  0  COORDINATES:    0.000000    0.000000    0.000000


 **********************************************************************************************************************************
 DATASETS  * FILE   NREC   LENGTH (MB)   RECORD NAMES
              1      19       19.89       500      610      700      900      950      970     1000      129      960     1100   
                                          VAR    BASINP    GEOM    SYMINP    ZMAT    AOBASIS   BASIS     P2S    ABASIS      S 
                                         1400     1410     1200     1210     1080     1600     1650     1300     1700   
                                           T        V       H0       H01     AOSYM     SMH    MOLCAS    ERIS     OPER   

 PROGRAMS   *        TOTAL       INT
 CPU TIMES  *         0.20      0.11
 REAL TIME  *         0.42 SEC
 DISK USED  *        24.67 MB      
 **********************************************************************************************************************************


 PROGRAM * UHF-SCF       Authors: W. Meyer, H.-J. Werner


 NUMBER OF ELECTRONS:       5+    3-    SPACE SYMMETRY=1    SPIN SYMMETRY: Triplet 
 CONVERGENCE THRESHOLDS:    1.00E-06 (Density)    1.00E-07 (Energy)
 MAX. NUMBER OF ITERATIONS:       60
 INTERPOLATION TYPE:            DIIS
 INTERPOLATION STEPS:              2 (START)      1 (STEP)
 LEVEL SHIFTS:                  0.20 (ALPHA)   0.20 (BETA) 




   Atom=C  basis=MINAO             lmin=0  lmax=1
   Atom=H  basis=MINAO             lmin=0  lmax=0

 Orbital guess generated from atomic densities. Full valence occupancy:    4

 Molecular orbital dump at record        2200.2

 Initial alpha occupation   5
 Initial beta  occupation   3

 ITERATION    DDIFF          GRAD             ENERGY        2-EL.EN.            DIPOLE MOMENTS         DIIS
    1      0.000D+00      0.000D+00       -38.41907758     38.810286    0.00000   -0.29347    0.00000    0
    2      0.228D-01      0.173D-01       -38.42671686     38.497850    0.00000   -0.15817    0.00000    1
    3      0.104D-01      0.789D-02       -38.42889989     38.363587    0.00000   -0.08697    0.00000    2
    4      0.396D-02      0.270D-02       -38.42967426     38.362243    0.00000   -0.06993   -0.00000    3
    5      0.248D-02      0.118D-02       -38.42978154     38.369422    0.00000   -0.06919   -0.00000    4
    6      0.758D-03      0.256D-03       -38.42978688     38.368441    0.00000   -0.07037   -0.00000    5
    7      0.109D-03      0.509D-04       -38.42978705     38.368588    0.00000   -0.07067   -0.00000    6
    8      0.104D-04      0.564D-05       -38.42978706     38.368562    0.00000   -0.07069   -0.00000    6
    9      0.145D-05      0.165D-05       -38.42978706     38.368559    0.00000   -0.07069    0.00000    5
   10      0.501D-06      0.338D-06       -38.42978706     38.368562    0.00000   -0.07069    0.00000    5
   11      0.516D-07      0.467D-07       -38.42978706     38.368562    0.00000   -0.07069    0.00000    4
 
 Final alpha occupancy:   5
 Final beta  occupancy:   3

 !UHF STATE 1.1 Energy                -38.429787056639
 Nuclear energy                         6.12872528
 One-electron energy                  -63.74279328
 Two-electron energy                   19.18428094
 Virial quotient                       -0.99588940
 !UHF STATE 1.1 Dipole moment           0.00000000    -0.07069449     0.00000000
 Dipole moment /Debye                   0.00000000    -0.17967571     0.00000000

 ELECTRON ORBITALS FOR POSITIVE SPIN
 ===================================


   Orb  Occ    Energy  Couls-En    Coefficients

                                   1 1s      1 1s      1 2px     1 2py     1 2pz     2 1s      3 1s   

   1.1   +   -10.9988  -29.7144  0.992185  0.033908 -0.000000 -0.004475 -0.000000 -0.007676 -0.007676

   2.1   +    -0.8992   -5.6007 -0.244834  0.790303 -0.000000 -0.021834 -0.000000  0.205845  0.205845

   3.1   +    -0.5263   -4.7128 -0.000000  0.000000  0.000000  0.000001  0.591344  0.410391 -0.410391

   4.1   +    -0.4401   -4.7994 -0.086362  0.447918  0.000000  0.811765 -0.000001 -0.251240 -0.251240

   5.1   +    -0.3689   -4.8987 -0.000000  0.000000  1.000000 -0.000000 -0.000000  0.000000 -0.000000

 ELECTRON ORBITALS FOR NEGATIVE SPIN
 ===================================


   Orb  Occ    Energy  Couls-En    Coefficients

                                   1 1s      1 1s      1 2px     1 2py     1 2pz     2 1s      3 1s   

   1.1   -   -10.9396  -29.6598  0.993602  0.028084 -0.000000 -0.004401 -0.000000 -0.006541 -0.006541

   2.1   -    -0.7209   -5.2104 -0.193022  0.543632 -0.000000 -0.192500 -0.000000  0.337969  0.337969

   3.1   -    -0.4803   -4.5209 -0.000000  0.000000  0.000000  0.000000  0.493229  0.485326 -0.485326

 HOMO      5.1    -0.368939 =     -10.0393eV
 LUMO     -4.1     0.284749 =       7.7484eV
 LUMO-HOMO         0.653688 =      17.7878eV

 EXPECTATION VALUE OF S**2:             2.01354933

 NATURAL CHARGE ORBITALS
 =======================


   Orb     Occ        Energy       Coefficients

                                   1 1s      1 1s      1 2px     1 2py     1 2pz     2 1s      3 1s   

   1.1  2.00000   -10.939648     0.997658  0.015958 -0.000000 -0.000108  0.000000 -0.014073 -0.014073

   2.1  1.99707    -0.794891    -0.177735  0.587395 -0.000000 -0.223022 -0.000002  0.303504  0.303507

   3.1  1.99614    -0.500903    -0.000001  0.000002 -0.000000 -0.000000  0.542811  0.448292 -0.448290

   4.1  1.00000    -0.094139    -0.149952  0.654926  0.034767  0.771132 -0.000000 -0.181786 -0.181786

   5.1  1.00000     0.003648     0.005217 -0.022784  0.999395 -0.026826  0.000000  0.006324  0.006324

 Natural orbitals saved to record    2200.2 (Orbital set 3)

 Orbital spaces for UNO-CAS (Min. occupation: 0.020  Max. occupation: 1.980):

 Closed:        3
 Active:        2


 **********************************************************************************************************************************
 DATASETS  * FILE   NREC   LENGTH (MB)   RECORD NAMES
              1      19       19.89       500      610      700      900      950      970     1000      129      960     1100   
                                          VAR    BASINP    GEOM    SYMINP    ZMAT    AOBASIS   BASIS     P2S    ABASIS      S 
                                         1400     1410     1200     1210     1080     1600     1650     1300     1700   
                                           T        V       H0       H01     AOSYM     SMH    MOLCAS    ERIS     OPER   

              2       4        2.78       700     1000      520     2200   
                                         GEOM     BASIS   MCVARS     UHF  

 PROGRAMS   *        TOTAL       UHF       INT
 CPU TIMES  *         0.23      0.03      0.11
 REAL TIME  *         0.50 SEC
 DISK USED  *        24.67 MB      
 **********************************************************************************************************************************


 PROGRAM * OPT (Geometry optimization)     Authors: F. Eckert and H.-J. Werner


 BFGS update of hessian

 *** Long output written to logfile /scratch_p/cours/31316/molpro.log ***


 Geometry optimization using default procedure for command UHF-SCF

 Geometry written to block  1 of record 700

 XYZ inputs for each point on the optimization path will be saved in files ch2_xx.xyz

 Making model hessian for cartesian coordinates

 Entering Rational Function Geometry Optimization

 ITER.   ENERGY(OLD)    ENERGY(NEW)      DE          GRADMAX     GRADNORM    GRADRMS     STEPMAX     STEPLEN     STEPRMS   CPU-time
   1   -38.42978706   -38.43590047    -0.00611342  0.04273237  0.05296411  0.01765470  0.29863871  0.30000000  0.17320508      0.30
   2   -38.43590047   -38.43623129    -0.00033082  0.02034420  0.02047954  0.00682651  0.03111401  0.03871537  0.02235233      0.61
   3   -38.43623129   -38.43623425    -0.00000295  0.00091745  0.00100605  0.00033535  0.00537125  0.00542324  0.00313111      0.94
   4   -38.43623425   -38.43623433    -0.00000009  0.00014480  0.00020197  0.00006732  0.00101029  0.00102932  0.00059428      1.26

 END OF GEOMETRY OPTIMIZATION.

 Current geometry (xyz format, in Angstrom)


 Dump information in style XYZ to ch2.xyz                                                                         

    3
 UHF-SCF000/STO-3G  ENERGY=-38.43623433
 C          0.0000000000        0.0711782280        0.0000000001
 H          0.0000000000       -0.4240935459        0.9620500880
 H          0.0000000000       -0.4240935455       -0.9620500887

 **********************************************************************************************************************************

 Geometry written to block  1 of record 700


 **********************************************************************************************************************************
 DATASETS  * FILE   NREC   LENGTH (MB)   RECORD NAMES
              1      19       19.89       500      610      700      900      950      970     1000      129      960     1100   
                                          VAR    BASINP    GEOM    SYMINP    ZMAT    AOBASIS   BASIS     P2S    ABASIS      S 
                                         1400     1410     1200     1210     1080     1600     1650     1300     1700   
                                           T        V       H0       H01     AOSYM     SMH    MOLCAS    ERIS     OPER   

              2       4        2.78       700     1000      520     2200   
                                         GEOM     BASIS   MCVARS     UHF  

 PROGRAMS   *        TOTAL      OPTG       UHF       INT
 CPU TIMES  *         1.49      1.26      0.03      0.11
 REAL TIME  *         2.81 SEC
 DISK USED  *        27.20 MB      
 **********************************************************************************************************************************


 PROGRAM * HESSIAN

 Computing numerical hessian using default procedure for command UHF-SCF

 Symmetry elements for unique displacements: X  Z  

 Using no symmetry in wavefunction calculations

 Running default procedure: UHF-SCF000
 

 Numerically approximating hessian using central gradient differences

 Task list generated. Total number of displacements:      9

    5 tasks completed, CPU=2s Elapsed=2s

 Numerical UHF-SCF000 hessian completed. CPU-time:     4.26 sec, Elapsed:     5.03 sec

 UHF-SCF hessian saved to record  5300.2

 PROGRAM * FREQUENCIES (Calculation of harmonuc vibrational spectra for UHF-SCF)


 Permanent Dipole Moment [debye]
   1-  3    0.000000   -0.222643   -0.000000

 Dipole Moment Norm    0.2226426 [debye]

 Dipole Moment Derivatives [debye/ang]
                   1             2             3             4             5             6             7             8
         1    -0.4494962     0.0000000     0.0000000     0.2247620    -0.0000000     0.0000000     0.2247620    -0.0000000
         2     0.0000000     0.2451513     0.0000000     0.0000000    -0.1225834    -0.0790673     0.0000000    -0.1225834
         3     0.0000000     0.0000000    -0.0864705     0.0000000     0.0934738     0.0432274     0.0000000    -0.0934738
                   9
         1    -0.0000000
         2     0.0790673
         3     0.0432274

 Projecting out rotations and translations

   Low Vibration      Wavenumber
        Nr             [1/cm] 
        1                0.00
        2                0.00
        3                0.00
        4                0.00
        5                0.00
        6                0.00

     Vibration        Wavenumber
        Nr             [1/cm] 
        1             1428.24
        2             3589.01
        3             3824.28

 FREQUENCIES * CALCULATION OF NORMAL MODES FOR UHF-SCF


 Atomic Coordinates

  Nr  Atom  Charge       X              Y              Z

   1   C     6.00    0.000000000    0.134507357    0.000000000
   2   H     1.00    0.000000000   -0.801420653    1.818011184
   3   H     1.00    0.000000000   -0.801420652   -1.818011186

 Frequencies dumped to record   5400.2

 Gradient norm at reference geometry: 0.38168D-03

 Normal Modes

                              1 A`        2 A`        3 A` 
 Wavenumbers [cm-1]         1428.24     3589.01     3824.28
 Intensities [km/mol]          1.99        0.01        0.00
 Intensities [relative]      100.00        0.30        0.02
           CX1             -0.00000    -0.00000    -0.00000
           CY1             -0.09686     0.05083     0.00000
           CZ1             -0.00000     0.00000    -0.09875
           HX2             -0.00000    -0.00000    -0.00000
           HY2              0.57710    -0.30287    -0.30291
           HZ2              0.32730     0.62365     0.58839
           HX3              0.00000     0.00000    -0.00000
           HY3              0.57710    -0.30287     0.30291
           HZ3             -0.32730    -0.62365     0.58839


 Normal Modes of low/zero frequencies

                                  1           2           3           4           5
 Wavenumbers [cm-1]            0.00        0.00        0.00        0.00        0.00
 Intensities [km/mol]          0.00        0.00        0.00        0.00        0.00
 Intensities [relative]        0.00        0.00        0.00        0.00        0.00
           CX1              0.00000    -0.00000     0.00000    -0.00000     0.28854
           CY1              0.19434    -0.04992    -0.04073     0.17133    -0.00000
           CZ1             -0.09085     0.16781     0.08435     0.17240     0.00000
           HX2              0.06052    -0.40003     0.75064     0.00631     0.00000
           HY2              0.60338     0.27540     0.08526    -0.16728     0.00000
           HZ2              0.11973     0.33529     0.14921    -0.00192     0.00000
           HX3             -0.03488     0.15921    -0.49448    -0.01008     0.00000
           HY3             -0.21470    -0.37523    -0.16672     0.50994    -0.00000
           HZ3              0.11973     0.33529     0.14921    -0.00192     0.00000

                                  6
 Wavenumbers [cm-1]            0.00
 Intensities [km/mol]          0.00
 Intensities [relative]        0.00
           CX1             -0.00000
           CY1             -0.00434
           CZ1              0.01597
           HX2              0.51472
           HY2              0.02081
           HZ2              0.02892
           HX3              0.84908
           HY3             -0.02950
           HZ3              0.02892


 FREQUENCIES * CALCULATION OF THERMODYNAMICAL PROPERTIES

 Temperature   298.150 [K]  Pressure   1.00000 [atm]
 Atom  1: C         Mass  12.01100
 Atom  2: H         Mass   1.00794
 Atom  3: H         Mass   1.00794

 Molecular Mass:    14.02688 [a.u.]
 Moments of Inertia           8.17487     6.66282     1.51206 [a.u.]
 Point Group CS    Order of principal axis35
 Rotational Symmetry factor  1.0
 Rotational Temperatures     10.59492    12.99933    57.28105 [K]
 Rotational Constants       220.76360   270.86355  1193.55023 [GHz]

 Vibrational Temperatures [K]   2054.91  5163.76  5502.26

 Zero-Point vibrational Energy       52.884 [kJ/Mol]
                                     12.640 [kcal/Mol]

 Electronic Energy at 0 [K]:                       -38.436234 [H]
 Electronic Energy + Zero-Point correction:        -38.416092 [H]
 Electronic Energy at     298.150 [K]:             -38.413253 [H]
 Enthalpy H at            298.150 [K]:             -38.412308 [H]
 Free Enthalpy G at       298.150 [K]:             -38.435233 [H]

 Partition Function  Z                 log10(Z)          ln(Z)
 Electronic      0.300000D+01          0.477121          1.098612
 Translation     0.206496D+07          6.314912         14.540622
 Rotation        0.102734D+03          2.011712          4.632139
 Vibration       0.100102D+01          0.000441          0.001016
 Total           0.637070D+09          8.804187         20.271374

                       H(T)-H(0)              Cv                 S
                       [kJ/Mol]          [J/Mol K]          [J/Mol K] 
 Electronic               0.000              0.000              9.134
 Translation              3.718             12.472            141.684
 Rotation                 3.718             12.472             50.986
 Vibration                0.017              0.402              0.067
 Volume (RT)              2.479              0.000              0.000
 Total                    9.933             25.346            201.871

 Thermal energies including ZPE:

 H(T)-E(0)               62.817 kJ/Mol
 U(T)-E(0)               60.338 kJ/Mol

                       H(T)-H(0)              Cv                 S
                       [kcal/Mol]        [cal/Mol K]        [cal/Mol K] 
 Electronic               0.000              0.000              2.183
 Translation              0.889              2.981             33.863
 Rotation                 0.889              2.981             12.186
 Vibration                0.004              0.096              0.016
 Volume (RT)              0.592              0.000              0.000
 Total                    2.374              6.058             48.248

 Thermal energies including ZPE:

 H(T)-E(0)               15.014 kcal/Mol
 U(T)-E(0)               14.421 kcal/Mol
 Frequency information read from record  5400.2

 Dump information in style MOLDEN to test.molden                                                                     

 Molecular orbitals read from record     2200.2  Type=UHF/NATURAL (state 1.1)
 Occupation numbers read from record     2200.2  Type=UHF/NATURAL (state 1.1)
 Orbital energies read from record       2200.2  Type=UHF/NATURAL (state 1.1)
 Redundancy group numbers read from rec  2200.2  Type=UHF/ALPHA (state 1.1)
 
 DUMP ORBITAL  1.1 AS ORBITAL    1  occ=    2.0000  eig=  -10.9314  GROUP=   1
 DUMP ORBITAL  2.1 AS ORBITAL    2  occ=    1.9969  eig=   -0.5290  GROUP=   1
 DUMP ORBITAL  3.1 AS ORBITAL    3  occ=    1.9952  eig=   -0.7890  GROUP=   1
 DUMP ORBITAL  5.1 AS ORBITAL    4  occ=    1.0000  eig=   -0.0624  GROUP=   1
 DUMP ORBITAL  4.1 AS ORBITAL    5  occ=    1.0000  eig=    0.0069  GROUP=   1
 DUMP ORBITAL  6.1 AS ORBITAL    6  occ=    0.0048  eig=    0.6746  GROUP=   0
 DUMP ORBITAL  7.1 AS ORBITAL    7  occ=    0.0031  eig=    0.8184  GROUP=   0

 Total charge:       8.000000
 Frequency information read from record  5400.2

 **********************************************************************************************************************************

 UHF/STO-3G energy=    -38.436234334427

       OPTG(UHF)        UHF-SCF 
    -38.43623433    -38.42978706
 **********************************************************************************************************************************
 Molpro calculation terminated
 Variable memory released
