 Entering Gaussian System, Link 0=g09
 Initial command:
 /apps/gaussian/g09/l1.exe /scratch_l/henon/hn3_29526/Gau-29542.inp -scrdir=/scratch_l/henon/hn3_29526/
 Entering Link 1 = /apps/gaussian/g09/l1.exe PID=     29543.
  
 Copyright (c) 1988,1990,1992,1993,1995,1998,2003,2009, Gaussian, Inc.
                  All Rights Reserved.
  
 This is part of the Gaussian(R) 09 program.  It is based on
 the Gaussian(R) 03 system (copyright 2003, Gaussian, Inc.),
 the Gaussian(R) 98 system (copyright 1998, Gaussian, Inc.),
 the Gaussian(R) 94 system (copyright 1995, Gaussian, Inc.),
 the Gaussian 92(TM) system (copyright 1992, Gaussian, Inc.),
 the Gaussian 90(TM) system (copyright 1990, Gaussian, Inc.),
 the Gaussian 88(TM) system (copyright 1988, Gaussian, Inc.),
 the Gaussian 86(TM) system (copyright 1986, Carnegie Mellon
 University), and the Gaussian 82(TM) system (copyright 1983,
 Carnegie Mellon University). Gaussian is a federally registered
 trademark of Gaussian, Inc.
  
 This software contains proprietary and confidential information,
 including trade secrets, belonging to Gaussian, Inc.
  
 This software is provided under written license and may be
 used, copied, transmitted, or stored only in accord with that
 written license.
  
 The following legend is applicable only to US Government
 contracts under FAR:
  
                    RESTRICTED RIGHTS LEGEND
  
 Use, reproduction and disclosure by the US Government is
 subject to restrictions as set forth in subparagraphs (a)
 and (c) of the Commercial Computer Software - Restricted
 Rights clause in FAR 52.227-19.
  
 Gaussian, Inc.
 340 Quinnipiac St., Bldg. 40, Wallingford CT 06492
  
  
 ---------------------------------------------------------------
 Warning -- This program may not be used in any manner that
 competes with the business of Gaussian, Inc. or will provide
 assistance to any competitor of Gaussian, Inc.  The licensee
 of this program is prohibited from giving any competitor of
 Gaussian, Inc. access to this program.  By using this program,
 the user acknowledges that Gaussian, Inc. is engaged in the
 business of creating and licensing software in the field of
 computational chemistry and represents and warrants to the
 licensee that it is not a competitor of Gaussian, Inc. and that
 it will not use this program in any manner prohibited above.
 ---------------------------------------------------------------
  

 Cite this work as:
 Gaussian 09, Revision A.02,
 M. J. Frisch, G. W. Trucks, H. B. Schlegel, G. E. Scuseria, 
 M. A. Robb, J. R. Cheeseman, G. Scalmani, V. Barone, B. Mennucci, 
 G. A. Petersson, H. Nakatsuji, M. Caricato, X. Li, H. P. Hratchian, 
 A. F. Izmaylov, J. Bloino, G. Zheng, J. L. Sonnenberg, M. Hada, 
 M. Ehara, K. Toyota, R. Fukuda, J. Hasegawa, M. Ishida, T. Nakajima, 
 Y. Honda, O. Kitao, H. Nakai, T. Vreven, J. A. Montgomery, Jr., 
 J. E. Peralta, F. Ogliaro, M. Bearpark, J. J. Heyd, E. Brothers, 
 K. N. Kudin, V. N. Staroverov, R. Kobayashi, J. Normand, 
 K. Raghavachari, A. Rendell, J. C. Burant, S. S. Iyengar, J. Tomasi, 
 M. Cossi, N. Rega, J. M. Millam, M. Klene, J. E. Knox, J. B. Cross, 
 V. Bakken, C. Adamo, J. Jaramillo, R. Gomperts, R. E. Stratmann, 
 O. Yazyev, A. J. Austin, R. Cammi, C. Pomelli, J. W. Ochterski, 
 R. L. Martin, K. Morokuma, V. G. Zakrzewski, G. A. Voth, 
 P. Salvador, J. J. Dannenberg, S. Dapprich, A. D. Daniels, 
 O. Farkas, J. B. Foresman, J. V. Ortiz, J. Cioslowski, 
 and D. J. Fox, Gaussian, Inc., Wallingford CT, 2009.
 
 ******************************************
 Gaussian 09:  AM64L-G09RevA.02 11-Jun-2009
                25-Apr-2014 
 ******************************************
 %NPROC=12
 Will use up to   12 processors via shared memory.
 %MEM=500MB
 ------------------------------------------------------
 #P M06 6-311G** OPT FREQ # GFINPUT IOP(6/7=3) POP=FULL
 ------------------------------------------------------
 1/14=-1,18=20,19=15,26=3,38=1/1,3;
 2/9=110,12=2,17=6,18=5,40=1/2;
 3/5=4,6=6,7=101,11=2,16=1,24=10,25=1,30=1,71=1,74=-54/1,2,3;
 4//1;
 5/5=2,38=5/2;
 6/7=3,28=1/1;
 7//1,2,3,16;
 1/14=-1,18=20,19=15/3(2);
 2/9=110/2;
 99//99;
 2/9=110/2;
 3/5=4,6=6,7=101,11=2,16=1,25=1,30=1,71=1,74=-54/1,2,3;
 4/5=5,16=3/1;
 5/5=2,38=5/2;
 7//1,2,3,16;
 1/14=-1,18=20,19=15/3(-5);
 2/9=110/2;
 6/7=3,19=2,28=1/1;
 99/9=1/99;
 Leave Link    1 at Fri Apr 25 16:17:11 2014, MaxMem=   65536000 cpu:       0.3
 (Enter /apps/gaussian/g09/l101.exe)
 --------
 reactif1
 --------
 Symbolic Z-matrix:
 Charge =  0 Multiplicity = 1
 7                     0.12582   0.       -0.00529 
 7                    -0.07638   0.        1.07472 
 7                     0.48325   0.       -1.19042 
 1                    -0.34084   0.       -1.76675 
 
 NAtoms=      4 NQM=      4 NQMF=      0 NMic=      0 NMicF=      0 NTot=      4.
                    Isotopes and Nuclear Properties:
 (Nuclear quadrupole moments (NQMom) in fm**2, nuclear magnetic moments (NMagM)
  in nuclear magnetons)

  Atom         1           2           3           4
 IAtWgt=          14          14          14           1
 AtmWgt=  14.0030740  14.0030740  14.0030740   1.0078250
 NucSpn=           2           2           2           1
 AtZEff=   0.0000000   0.0000000   0.0000000   0.0000000
 NQMom=    2.0440000   2.0440000   2.0440000   0.0000000
 NMagM=    0.4037610   0.4037610   0.4037610   2.7928460
 Leave Link  101 at Fri Apr 25 16:17:11 2014, MaxMem=   65536000 cpu:       0.7
 (Enter /apps/gaussian/g09/l103.exe)

 GradGradGradGradGradGradGradGradGradGradGradGradGradGradGradGradGradGrad
 Berny optimization.
 Initialization pass.
                           ----------------------------
                           !    Initial Parameters    !
                           ! (Angstroms and Degrees)  !
 --------------------------                            --------------------------
 ! Name  Definition              Value          Derivative Info.                !
 --------------------------------------------------------------------------------
 ! R1    R(1,2)                  1.0988         estimate D2E/DX2                !
 ! R2    R(1,3)                  1.2379         estimate D2E/DX2                !
 ! R3    R(3,4)                  1.0056         estimate D2E/DX2                !
 ! A1    A(2,1,3)              173.821          estimate D2E/DX2                !
 ! A2    A(1,3,4)              108.1843         estimate D2E/DX2                !
 ! D1    D(2,1,3,4)            180.0            estimate D2E/DX2                !
 --------------------------------------------------------------------------------
 Trust Radius=3.00D-01 FncErr=1.00D-07 GrdErr=1.00D-06
 Number of steps in this run=  20 maximum allowed number of steps= 100.
 GradGradGradGradGradGradGradGradGradGradGradGradGradGradGradGradGradGrad

 Leave Link  103 at Fri Apr 25 16:17:11 2014, MaxMem=   65536000 cpu:       0.0
 (Enter /apps/gaussian/g09/l202.exe)
                          Input orientation:                          
 ---------------------------------------------------------------------
 Center     Atomic      Atomic             Coordinates (Angstroms)
 Number     Number       Type             X           Y           Z
 ---------------------------------------------------------------------
      1          7           0        0.125821    0.000000   -0.005290
      2          7           0       -0.076376    0.000000    1.074716
      3          7           0        0.483249    0.000000   -1.190418
      4          1           0       -0.340844    0.000000   -1.766753
 ---------------------------------------------------------------------
                    Distance matrix (angstroms):
                    1          2          3          4
     1  N    0.000000
     2  N    1.098770   0.000000
     3  N    1.237854   2.333241   0.000000
     4  H    1.822232   2.853750   1.005630   0.000000
 Stoichiometry    HN3
 Framework group  CS[SG(HN3)]
 Deg. of freedom     5
 Full point group                 CS      NOp   2
 Largest Abelian subgroup         CS      NOp   2
 Largest concise Abelian subgroup C1      NOp   1
                         Standard orientation:                         
 ---------------------------------------------------------------------
 Center     Atomic      Atomic             Coordinates (Angstroms)
 Number     Number       Type             X           Y           Z
 ---------------------------------------------------------------------
      1          7           0        0.000000    0.116960   -0.000000
      2          7           0       -0.063970    1.213867   -0.000000
      3          7           0       -0.061361   -1.119373    0.000000
      4          1           0        0.877314   -1.480177   -0.000000
 ---------------------------------------------------------------------
 Rotational constants (GHZ):    617.5042679     12.4544937     12.2082642
 Leave Link  202 at Fri Apr 25 16:17:11 2014, MaxMem=   65536000 cpu:       0.1
 (Enter /apps/gaussian/g09/l301.exe)
 Standard basis: 6-311G(d,p) (5D, 7F)
 Ernie: Thresh=  0.10000D-02 Tol=  0.10000D-05 Strict=F.
 AO basis set in the form of general basis input (Overlap normalization):
      1 0
 S   6 1.00       0.000000000000
      0.6293480000D+04  0.1969788147D-02
      0.9490440000D+03  0.1496128592D-01
      0.2187760000D+03  0.7350053084D-01
      0.6369160000D+02  0.2489367658D+00
      0.1882820000D+02  0.6024594331D+00
      0.2720230000D+01  0.2562017589D+00
 SP   3 1.00       0.000000000000
      0.3063310000D+02  0.1119060795D+00  0.3831191864D-01
      0.7026140000D+01  0.9216666549D+00  0.2374031155D+00
      0.2112050000D+01 -0.2569191826D-02  0.8175923978D+00
 SP   1 1.00       0.000000000000
      0.6840090000D+00  0.1000000000D+01  0.1000000000D+01
 SP   1 1.00       0.000000000000
      0.2008780000D+00  0.1000000000D+01  0.1000000000D+01
 D   1 1.00       0.000000000000
      0.9130000000D+00  0.1000000000D+01
 ****
      2 0
 S   6 1.00       0.000000000000
      0.6293480000D+04  0.1969788147D-02
      0.9490440000D+03  0.1496128592D-01
      0.2187760000D+03  0.7350053084D-01
      0.6369160000D+02  0.2489367658D+00
      0.1882820000D+02  0.6024594331D+00
      0.2720230000D+01  0.2562017589D+00
 SP   3 1.00       0.000000000000
      0.3063310000D+02  0.1119060795D+00  0.3831191864D-01
      0.7026140000D+01  0.9216666549D+00  0.2374031155D+00
      0.2112050000D+01 -0.2569191826D-02  0.8175923978D+00
 SP   1 1.00       0.000000000000
      0.6840090000D+00  0.1000000000D+01  0.1000000000D+01
 SP   1 1.00       0.000000000000
      0.2008780000D+00  0.1000000000D+01  0.1000000000D+01
 D   1 1.00       0.000000000000
      0.9130000000D+00  0.1000000000D+01
 ****
      3 0
 S   6 1.00       0.000000000000
      0.6293480000D+04  0.1969788147D-02
      0.9490440000D+03  0.1496128592D-01
      0.2187760000D+03  0.7350053084D-01
      0.6369160000D+02  0.2489367658D+00
      0.1882820000D+02  0.6024594331D+00
      0.2720230000D+01  0.2562017589D+00
 SP   3 1.00       0.000000000000
      0.3063310000D+02  0.1119060795D+00  0.3831191864D-01
      0.7026140000D+01  0.9216666549D+00  0.2374031155D+00
      0.2112050000D+01 -0.2569191826D-02  0.8175923978D+00
 SP   1 1.00       0.000000000000
      0.6840090000D+00  0.1000000000D+01  0.1000000000D+01
 SP   1 1.00       0.000000000000
      0.2008780000D+00  0.1000000000D+01  0.1000000000D+01
 D   1 1.00       0.000000000000
      0.9130000000D+00  0.1000000000D+01
 ****
      4 0
 S   3 1.00       0.000000000000
      0.3386500000D+02  0.2549381454D-01
      0.5094790000D+01  0.1903731086D+00
      0.1158790000D+01  0.8521614860D+00
 S   1 1.00       0.000000000000
      0.3258400000D+00  0.1000000000D+01
 S   1 1.00       0.000000000000
      0.1027410000D+00  0.1000000000D+01
 P   1 1.00       0.000000000000
      0.7500000000D+00  0.1000000000D+01
 ****

 There are    44 symmetry adapted basis functions of A'  symmetry.
 There are    16 symmetry adapted basis functions of A"  symmetry.
 Integral buffers will be    131072 words long.
 Raffenetti 2 integral format.
 Two-electron integral symmetry is turned on.
    60 basis functions,   104 primitive gaussians,    63 cartesian basis functions
    11 alpha electrons       11 beta electrons
       nuclear repulsion energy        62.6735950135 Hartrees.
 IExCor= 4235 DFT=T Ex+Corr=M06 ExCW=0 ScaHFX=  0.270000
 ScaDFX=  1.000000  1.000000  1.000000  1.000000 ScalE2=  1.000000  1.000000
 IRadAn=      0 IRanWt=     -1 IRanGd=            0 ICorTp=0
 NAtoms=    4 NActive=    4 NUniq=    4 SFac= 7.50D-01 NAtFMM=   80 NAOKFM=F Big=F
 Leave Link  301 at Fri Apr 25 16:17:11 2014, MaxMem=   65536000 cpu:       0.4
 (Enter /apps/gaussian/g09/l302.exe)
 NPDir=0 NMtPBC=     1 NCelOv=     1 NCel=       1 NClECP=     1 NCelD=      1
         NCelK=      1 NCelE2=     1 NClLst=     1 CellRange=     0.0.
 One-electron integrals computed using PRISM.
 NBasis=    60 RedAO= T  NBF=    44    16
 NBsUse=    60 1.00D-06 NBFU=    44    16
 Precomputing XC quadrature grid using
 IXCGrd= 2 IRadAn=           0 IRanWt=          -1 IRanGd=           0 AccXCQ= 1.00D-10.
 NRdTot=     249 NPtTot=       31284 NUsed=       33092 NTot=       33124
 NSgBfM=    63    63    63    63    63 NAtAll=     4     4.
 Leave Link  302 at Fri Apr 25 16:17:11 2014, MaxMem=   65536000 cpu:       2.4
 (Enter /apps/gaussian/g09/l303.exe)
 DipDrv:  MaxL=1.
 Leave Link  303 at Fri Apr 25 16:17:11 2014, MaxMem=   65536000 cpu:       0.2
 (Enter /apps/gaussian/g09/l401.exe)
 Harris functional with IExCor= 1009 diagonalized for initial guess.
 ExpMin= 1.03D-01 ExpMax= 6.29D+03 ExpMxC= 9.49D+02 IAcc=1 IRadAn=         1 AccDes= 0.00D+00
 HarFok:  IExCor= 1009 AccDes= 0.00D+00 IRadAn=         1 IDoV= 1
 ScaDFX=  1.000000  1.000000  1.000000  1.000000
 FoFCou: FMM=F IPFlag=           0 FMFlag=      100000 FMFlg1=           0
         NFxFlg=           0 DoJE=T BraDBF=F KetDBF=T FulRan=T
         Omega=  0.000000  0.000000  1.000000  0.000000  0.000000 ICntrl=     500 IOpCl=  0
         NMat0=    1 NMatS0=    1 NMatT0=    0 NMatD0=    1 NMtDS0=    0 NMtDT0=    0
         I1Cent=           4 NGrid=           0.
 Petite list used in FoFCou.
 Harris En= -164.698206962912    
 Initial guess orbital symmetries:
       Occupied  (A') (A') (A') (A') (A') (A') (A') (A") (A') (A')
                 (A")
       Virtual   (A') (A") (A') (A') (A') (A') (A') (A") (A') (A')
                 (A") (A') (A') (A") (A') (A') (A') (A') (A") (A')
                 (A") (A') (A") (A') (A') (A") (A') (A") (A') (A")
                 (A') (A') (A') (A') (A") (A') (A") (A') (A') (A")
                 (A') (A") (A') (A') (A') (A') (A') (A') (A')
 The electronic state of the initial guess is 1-A'.
 Leave Link  401 at Fri Apr 25 16:17:11 2014, MaxMem=   65536000 cpu:       1.5
 (Enter /apps/gaussian/g09/l502.exe)
 Closed shell SCF:
 Requested convergence on RMS density matrix=1.00D-08 within 128 cycles.
 Requested convergence on MAX density matrix=1.00D-06.
 Requested convergence on             energy=1.00D-06.
 No special actions if energy rises.
 Using DIIS extrapolation, IDIIS=  1040.
 Integral symmetry usage will be decided dynamically.
        33043 words used for storage of precomputed grid.
 Keep R1 ints in memory in canonical form, NReq=2978398.
 IEnd=       64336 IEndB=       64336 NGot=    65536000 MDV=    63459173
 LenX=    63459173 LenY=    63454763
 Symmetry not used in FoFDir.
 MinBra= 0 MaxBra= 2 Meth= 1.
 IRaf=       0 NMat=   1 IRICut=       1 DoRegI=T DoRafI=F ISym2E= 0 JSym2E=0.
 Integral accuracy reduced to 1.0D-05 until final iterations.

 Cycle   1  Pass 0  IDiag  1:
 E= -164.674470186174    
 DIIS: error= 3.56D-02 at cycle   1 NSaved=   1.
 NSaved= 1 IEnMin= 1 EnMin= -164.674470186174     IErMin= 1 ErrMin= 3.56D-02
 ErrMax= 3.56D-02 EMaxC= 1.00D-01 BMatC= 7.27D-02 BMatP= 7.27D-02
 IDIUse=3 WtCom= 6.44D-01 WtEn= 3.56D-01
 Coeff-Com:  0.100D+01
 Coeff-En:   0.100D+01
 Coeff:      0.100D+01
 Gap=     0.212 Goal=   None    Shift=    0.000
 GapD=    0.212 DampG=1.000 DampE=0.500 DampFc=0.5000 IDamp=-1.
 Damping current iteration by 5.00D-01
 RMSDP=7.30D-03 MaxDP=1.31D-01              OVMax= 1.43D-01

 Cycle   2  Pass 0  IDiag  1:
 E= -164.689657529305     Delta-E=       -0.015187343130 Rises=F Damp=T
 DIIS: error= 1.19D-02 at cycle   2 NSaved=   2.
 NSaved= 2 IEnMin= 2 EnMin= -164.689657529305     IErMin= 2 ErrMin= 1.19D-02
 ErrMax= 1.19D-02 EMaxC= 1.00D-01 BMatC= 1.04D-02 BMatP= 7.27D-02
 IDIUse=3 WtCom= 8.81D-01 WtEn= 1.19D-01
 Coeff-Com:  0.216D+00 0.784D+00
 Coeff-En:   0.348D+00 0.652D+00
 Coeff:      0.232D+00 0.768D+00
 Gap=     0.278 Goal=   None    Shift=    0.000
 RMSDP=1.86D-03 MaxDP=2.23D-02 DE=-1.52D-02 OVMax= 1.11D-01

 Cycle   3  Pass 0  IDiag  1:
 E= -164.724194988239     Delta-E=       -0.034537458934 Rises=F Damp=F
 DIIS: error= 1.55D-02 at cycle   3 NSaved=   3.
 NSaved= 3 IEnMin= 3 EnMin= -164.724194988239     IErMin= 2 ErrMin= 1.19D-02
 ErrMax= 1.55D-02 EMaxC= 1.00D-01 BMatC= 5.60D-03 BMatP= 1.04D-02
 IDIUse=3 WtCom= 8.45D-01 WtEn= 1.55D-01
 Coeff-Com:  0.913D-01 0.415D+00 0.494D+00
 Coeff-En:   0.000D+00 0.000D+00 0.100D+01
 Coeff:      0.771D-01 0.350D+00 0.573D+00
 Gap=     0.275 Goal=   None    Shift=    0.000
 RMSDP=1.47D-03 MaxDP=1.86D-02 DE=-3.45D-02 OVMax= 5.56D-02

 Cycle   4  Pass 0  IDiag  1:
 E= -164.724636083657     Delta-E=       -0.000441095418 Rises=F Damp=F
 DIIS: error= 1.51D-02 at cycle   4 NSaved=   4.
 NSaved= 4 IEnMin= 4 EnMin= -164.724636083657     IErMin= 2 ErrMin= 1.19D-02
 ErrMax= 1.51D-02 EMaxC= 1.00D-01 BMatC= 5.55D-03 BMatP= 5.60D-03
 IDIUse=3 WtCom= 8.49D-01 WtEn= 1.51D-01
 Coeff-Com:  0.346D-01 0.166D+00 0.445D+00 0.354D+00
 Coeff-En:   0.000D+00 0.000D+00 0.483D+00 0.517D+00
 Coeff:      0.293D-01 0.141D+00 0.451D+00 0.379D+00
 Gap=     0.278 Goal=   None    Shift=    0.000
 RMSDP=7.49D-04 MaxDP=7.28D-03 DE=-4.41D-04 OVMax= 2.85D-02

 Cycle   5  Pass 0  IDiag  1:
 E= -164.729198134383     Delta-E=       -0.004562050726 Rises=F Damp=F
 DIIS: error= 1.97D-03 at cycle   5 NSaved=   5.
 NSaved= 5 IEnMin= 5 EnMin= -164.729198134383     IErMin= 5 ErrMin= 1.97D-03
 ErrMax= 1.97D-03 EMaxC= 1.00D-01 BMatC= 1.58D-04 BMatP= 5.55D-03
 IDIUse=3 WtCom= 9.80D-01 WtEn= 1.97D-02
 Coeff-Com:  0.608D-02 0.887D-02 0.149D+00 0.201D+00 0.635D+00
 Coeff-En:   0.000D+00 0.000D+00 0.000D+00 0.000D+00 0.100D+01
 Coeff:      0.596D-02 0.869D-02 0.147D+00 0.197D+00 0.642D+00
 Gap=     0.278 Goal=   None    Shift=    0.000
 RMSDP=1.26D-04 MaxDP=1.89D-03 DE=-4.56D-03 OVMax= 3.01D-03

 Cycle   6  Pass 0  IDiag  1:
 E= -164.729318611578     Delta-E=       -0.000120477195 Rises=F Damp=F
 DIIS: error= 2.11D-04 at cycle   6 NSaved=   6.
 NSaved= 6 IEnMin= 6 EnMin= -164.729318611578     IErMin= 6 ErrMin= 2.11D-04
 ErrMax= 2.11D-04 EMaxC= 1.00D-01 BMatC= 1.92D-06 BMatP= 1.58D-04
 IDIUse=3 WtCom= 9.98D-01 WtEn= 2.11D-03
 Coeff-Com: -0.626D-03-0.834D-03 0.144D-01 0.205D-01 0.145D+00 0.821D+00
 Coeff-En:   0.000D+00 0.000D+00 0.000D+00 0.000D+00 0.000D+00 0.100D+01
 Coeff:     -0.625D-03-0.832D-03 0.144D-01 0.205D-01 0.145D+00 0.821D+00
 Gap=     0.278 Goal=   None    Shift=    0.000
 RMSDP=1.68D-05 MaxDP=2.50D-04 DE=-1.20D-04 OVMax= 3.49D-04

 Cycle   7  Pass 0  IDiag  1:
 E= -164.729320096032     Delta-E=       -0.000001484453 Rises=F Damp=F
 DIIS: error= 2.39D-05 at cycle   7 NSaved=   7.
 NSaved= 7 IEnMin= 7 EnMin= -164.729320096032     IErMin= 7 ErrMin= 2.39D-05
 ErrMax= 2.39D-05 EMaxC= 1.00D-01 BMatC= 2.13D-08 BMatP= 1.92D-06
 IDIUse=1 WtCom= 1.00D+00 WtEn= 0.00D+00
 Coeff-Com: -0.260D-03-0.112D-03-0.260D-02-0.478D-02-0.481D-02 0.638D-01
 Coeff-Com:  0.949D+00
 Coeff:     -0.260D-03-0.112D-03-0.260D-02-0.478D-02-0.481D-02 0.638D-01
 Coeff:      0.949D+00
 Gap=     0.278 Goal=   None    Shift=    0.000
 RMSDP=3.38D-06 MaxDP=3.74D-05 DE=-1.48D-06 OVMax= 1.52D-04

 Initial convergence to 1.0D-05 achieved.  Increase integral accuracy.
 Cycle   8  Pass 1  IDiag  1:
 E= -164.729431980585     Delta-E=       -0.000111884554 Rises=F Damp=F
 DIIS: error= 1.20D-04 at cycle   1 NSaved=   1.
 NSaved= 1 IEnMin= 1 EnMin= -164.729431980585     IErMin= 1 ErrMin= 1.20D-04
 ErrMax= 1.20D-04 EMaxC= 1.00D-01 BMatC= 1.94D-06 BMatP= 1.94D-06
 IDIUse=3 WtCom= 9.99D-01 WtEn= 1.20D-03
 Coeff-Com:  0.100D+01
 Coeff-En:   0.100D+01
 Coeff:      0.100D+01
 Gap=     0.278 Goal=   None    Shift=    0.000
 RMSDP=3.38D-06 MaxDP=3.74D-05 DE=-1.12D-04 OVMax= 4.37D-04

 Cycle   9  Pass 1  IDiag  1:
 E= -164.729433528263     Delta-E=       -0.000001547678 Rises=F Damp=F
 DIIS: error= 3.73D-05 at cycle   2 NSaved=   2.
 NSaved= 2 IEnMin= 2 EnMin= -164.729433528263     IErMin= 2 ErrMin= 3.73D-05
 ErrMax= 3.73D-05 EMaxC= 1.00D-01 BMatC= 5.27D-08 BMatP= 1.94D-06
 IDIUse=1 WtCom= 1.00D+00 WtEn= 0.00D+00
 Coeff-Com:  0.206D-01 0.979D+00
 Coeff:      0.206D-01 0.979D+00
 Gap=     0.278 Goal=   None    Shift=    0.000
 RMSDP=9.39D-06 MaxDP=1.99D-04 DE=-1.55D-06 OVMax= 1.57D-04

 Cycle  10  Pass 1  IDiag  1:
 E= -164.729433410157     Delta-E=        0.000000118106 Rises=F Damp=F
 DIIS: error= 7.19D-05 at cycle   3 NSaved=   3.
 NSaved= 3 IEnMin= 2 EnMin= -164.729433528263     IErMin= 2 ErrMin= 3.73D-05
 ErrMax= 7.19D-05 EMaxC= 1.00D-01 BMatC= 2.14D-07 BMatP= 5.27D-08
 IDIUse=1 WtCom= 1.00D+00 WtEn= 0.00D+00
 Coeff-Com: -0.139D-01 0.685D+00 0.329D+00
 Coeff:     -0.139D-01 0.685D+00 0.329D+00
 Gap=     0.278 Goal=   None    Shift=    0.000
 RMSDP=4.22D-06 MaxDP=5.52D-05 DE= 1.18D-07 OVMax= 1.36D-04

 Cycle  11  Pass 1  IDiag  1:
 E= -164.729433563019     Delta-E=       -0.000000152862 Rises=F Damp=F
 DIIS: error= 1.83D-05 at cycle   4 NSaved=   4.
 NSaved= 4 IEnMin= 4 EnMin= -164.729433563019     IErMin= 4 ErrMin= 1.83D-05
 ErrMax= 1.83D-05 EMaxC= 1.00D-01 BMatC= 7.24D-09 BMatP= 5.27D-08
 IDIUse=1 WtCom= 1.00D+00 WtEn= 0.00D+00
 Coeff-Com: -0.103D-01 0.332D+00 0.198D+00 0.481D+00
 Coeff:     -0.103D-01 0.332D+00 0.198D+00 0.481D+00
 Gap=     0.278 Goal=   None    Shift=    0.000
 RMSDP=1.21D-06 MaxDP=1.33D-05 DE=-1.53D-07 OVMax= 4.77D-05

 Cycle  12  Pass 1  IDiag  1:
 E= -164.729433568158     Delta-E=       -0.000000005140 Rises=F Damp=F
 DIIS: error= 6.65D-06 at cycle   5 NSaved=   5.
 NSaved= 5 IEnMin= 5 EnMin= -164.729433568158     IErMin= 5 ErrMin= 6.65D-06
 ErrMax= 6.65D-06 EMaxC= 1.00D-01 BMatC= 1.51D-09 BMatP= 7.24D-09
 IDIUse=1 WtCom= 1.00D+00 WtEn= 0.00D+00
 Coeff-Com: -0.313D-02 0.661D-01 0.520D-01 0.327D+00 0.558D+00
 Coeff:     -0.313D-02 0.661D-01 0.520D-01 0.327D+00 0.558D+00
 Gap=     0.278 Goal=   None    Shift=    0.000
 RMSDP=3.90D-07 MaxDP=4.59D-06 DE=-5.14D-09 OVMax= 1.33D-05

 Cycle  13  Pass 1  IDiag  1:
 E= -164.729433569406     Delta-E=       -0.000000001248 Rises=F Damp=F
 DIIS: error= 3.85D-07 at cycle   6 NSaved=   6.
 NSaved= 6 IEnMin= 6 EnMin= -164.729433569406     IErMin= 6 ErrMin= 3.85D-07
 ErrMax= 3.85D-07 EMaxC= 1.00D-01 BMatC= 1.15D-11 BMatP= 1.51D-09
 IDIUse=1 WtCom= 1.00D+00 WtEn= 0.00D+00
 Coeff-Com: -0.329D-03-0.132D-03 0.138D-02 0.539D-01 0.138D+00 0.807D+00
 Coeff:     -0.329D-03-0.132D-03 0.138D-02 0.539D-01 0.138D+00 0.807D+00
 Gap=     0.278 Goal=   None    Shift=    0.000
 RMSDP=6.42D-08 MaxDP=1.64D-06 DE=-1.25D-09 OVMax= 8.79D-07

 Cycle  14  Pass 1  IDiag  1:
 E= -164.729433569415     Delta-E=       -0.000000000008 Rises=F Damp=F
 DIIS: error= 1.04D-07 at cycle   7 NSaved=   7.
 NSaved= 7 IEnMin= 7 EnMin= -164.729433569415     IErMin= 7 ErrMin= 1.04D-07
 ErrMax= 1.04D-07 EMaxC= 1.00D-01 BMatC= 6.10D-13 BMatP= 1.15D-11
 IDIUse=1 WtCom= 1.00D+00 WtEn= 0.00D+00
 Coeff-Com: -0.331D-04-0.124D-02-0.635D-03 0.874D-02 0.308D-01 0.268D+00
 Coeff-Com:  0.694D+00
 Coeff:     -0.331D-04-0.124D-02-0.635D-03 0.874D-02 0.308D-01 0.268D+00
 Coeff:      0.694D+00
 Gap=     0.278 Goal=   None    Shift=    0.000
 RMSDP=1.58D-08 MaxDP=1.68D-07 DE=-8.36D-12 OVMax= 3.71D-07

 Cycle  15  Pass 1  IDiag  1:
 E= -164.729433569416     Delta-E=       -0.000000000001 Rises=F Damp=F
 DIIS: error= 4.75D-08 at cycle   8 NSaved=   8.
 NSaved= 8 IEnMin= 8 EnMin= -164.729433569416     IErMin= 8 ErrMin= 4.75D-08
 ErrMax= 4.75D-08 EMaxC= 1.00D-01 BMatC= 3.49D-14 BMatP= 6.10D-13
 IDIUse=1 WtCom= 1.00D+00 WtEn= 0.00D+00
 Coeff-Com:  0.201D-04-0.372D-03-0.243D-03-0.320D-02-0.382D-02-0.809D-02
 Coeff-Com:  0.143D+00 0.873D+00
 Coeff:      0.201D-04-0.372D-03-0.243D-03-0.320D-02-0.382D-02-0.809D-02
 Coeff:      0.143D+00 0.873D+00
 Gap=     0.278 Goal=   None    Shift=    0.000
 RMSDP=4.25D-09 MaxDP=6.43D-08 DE=-1.08D-12 OVMax= 1.50D-07

 SCF Done:  E(RM06) =  -164.729433569     A.U. after   15 cycles
             Convg  =    0.4249D-08             -V/T =  2.0010
 KE= 1.645719665345D+02 PE=-5.110492609038D+02 EE= 1.190742657863D+02
 Leave Link  502 at Fri Apr 25 16:17:12 2014, MaxMem=   65536000 cpu:       4.8
 (Enter /apps/gaussian/g09/l601.exe)
 Copying SCF densities to generalized density rwf, IOpCl= 0 IROHF=0.

 **********************************************************************

            Population analysis using the SCF density.

 **********************************************************************

 Orbital symmetries:
       Occupied  (A') (A') (A') (A') (A') (A') (A") (A') (A') (A')
                 (A")
       Virtual   (A') (A") (A') (A') (A') (A') (A') (A") (A') (A')
                 (A") (A') (A') (A") (A') (A') (A') (A') (A") (A')
                 (A") (A') (A") (A') (A') (A') (A") (A") (A') (A')
                 (A") (A') (A') (A') (A") (A') (A") (A') (A') (A")
                 (A') (A") (A') (A') (A') (A') (A') (A') (A')
 The electronic state is 1-A'.
 Alpha  occ. eigenvalues --  -14.56790 -14.46066 -14.42616  -1.18341  -1.00500
 Alpha  occ. eigenvalues --   -0.63825  -0.55088  -0.54330  -0.47301  -0.34590
 Alpha  occ. eigenvalues --   -0.29435
 Alpha virt. eigenvalues --   -0.01642   0.02498   0.03952   0.24118   0.38071
 Alpha virt. eigenvalues --    0.43330   0.45952   0.50137   0.51403   0.61545
 Alpha virt. eigenvalues --    0.61779   0.68363   0.69888   0.72628   0.78797
 Alpha virt. eigenvalues --    0.99697   1.10590   1.14924   1.25149   1.42939
 Alpha virt. eigenvalues --    1.54608   1.63677   1.65476   1.70515   1.85845
 Alpha virt. eigenvalues --    2.10646   2.10731   2.24735   2.29125   2.38288
 Alpha virt. eigenvalues --    2.41055   2.46029   2.68849   2.87680   3.05743
 Alpha virt. eigenvalues --    3.21660   3.51458   3.55253   3.62711   3.86370
 Alpha virt. eigenvalues --    3.92886   3.94151   4.04711   4.30055   4.43858
 Alpha virt. eigenvalues --    5.00843  34.96037  35.49633  36.37096
     Molecular Orbital Coefficients:
                           1         2         3         4         5
                           O         O         O         O         O
     Eigenvalues --   -14.56790 -14.46066 -14.42616  -1.18341  -1.00500
   1 1   N  1S          0.55743  -0.00406  -0.00092  -0.10594  -0.01360
   2        2S          0.46448  -0.00260  -0.00050  -0.16419  -0.02174
   3        2PX        -0.00019  -0.00005  -0.00003  -0.00563   0.00578
   4        2PY        -0.00007   0.00106  -0.00078   0.05117  -0.18279
   5        2PZ         0.00000   0.00000   0.00000   0.00000   0.00000
   6        3S          0.01934  -0.00375  -0.00084   0.46239   0.06941
   7        3PX        -0.00034   0.00037   0.00010  -0.00662   0.00780
   8        3PY         0.00351  -0.00697   0.00285   0.05256  -0.23861
   9        3PZ         0.00000   0.00000   0.00000   0.00000   0.00000
  10        4S         -0.00225   0.00370   0.00108   0.20706   0.05171
  11        4PX        -0.00002  -0.00018   0.00004   0.00048   0.00536
  12        4PY        -0.00011   0.00851  -0.00883  -0.00303  -0.07255
  13        4PZ         0.00000   0.00000   0.00000   0.00000   0.00000
  14        5D 0       -0.00273   0.00157   0.00076  -0.01330  -0.00196
  15        5D+1        0.00000   0.00000   0.00000   0.00000   0.00000
  16        5D-1        0.00000   0.00000   0.00000   0.00000   0.00000
  17        5D+2       -0.00471   0.00269   0.00128  -0.02105  -0.00278
  18        5D-2       -0.00018   0.00034  -0.00020  -0.00135   0.00025
  19 2   N  1S          0.00376   0.55743   0.00030  -0.07268   0.05976
  20        2S          0.00405   0.46499   0.00026  -0.11153   0.09301
  21        2PX         0.00006   0.00011  -0.00003   0.00523  -0.00470
  22        2PY        -0.00076  -0.00191  -0.00008  -0.09241   0.06774
  23        2PZ         0.00000   0.00000   0.00000   0.00000   0.00000
  24        3S         -0.00419   0.01786   0.00003   0.30628  -0.25949
  25        3PX        -0.00048   0.00030   0.00013   0.00642  -0.00622
  26        3PY         0.00677  -0.00521   0.00004  -0.11725   0.08405
  27        3PZ         0.00000   0.00000   0.00000   0.00000   0.00000
  28        4S         -0.00127  -0.01245   0.00640   0.11846  -0.12172
  29        4PX         0.00001  -0.00037   0.00016   0.00176  -0.00258
  30        4PY        -0.00020   0.00430  -0.00214  -0.02504   0.02357
  31        4PZ         0.00000   0.00000   0.00000   0.00000   0.00000
  32        5D 0        0.00180  -0.00151   0.00003  -0.00944   0.00743
  33        5D+1        0.00000   0.00000   0.00000   0.00000   0.00000
  34        5D-1        0.00000   0.00000   0.00000   0.00000   0.00000
  35        5D+2        0.00308  -0.00261   0.00007  -0.01577   0.01246
  36        5D-2        0.00045  -0.00028  -0.00009  -0.00173   0.00197
  37 3   N  1S          0.00084  -0.00029   0.55756  -0.03935  -0.08718
  38        2S          0.00108  -0.00023   0.46507  -0.06038  -0.13543
  39        2PX        -0.00009  -0.00004   0.00113   0.00886   0.02852
  40        2PY         0.00090   0.00015   0.00153   0.04220   0.06580
  41        2PZ         0.00000   0.00000   0.00000   0.00000   0.00000
  42        3S         -0.00100   0.00001   0.01671   0.16674   0.37805
  43        3PX         0.00048   0.00015   0.00167   0.01132   0.03987
  44        3PY        -0.00390  -0.00030   0.00064   0.05997   0.10394
  45        3PZ         0.00000   0.00000   0.00000   0.00000   0.00000
  46        4S         -0.00042   0.00421  -0.01220   0.05648   0.20305
  47        4PX        -0.00007  -0.00010  -0.00073   0.00759   0.01685
  48        4PY         0.00054   0.00191  -0.00370  -0.00011   0.02351
  49        4PZ         0.00000   0.00000   0.00000   0.00000   0.00000
  50        5D 0        0.00095   0.00009  -0.00100  -0.00514  -0.01215
  51        5D+1        0.00000   0.00000   0.00000   0.00000   0.00000
  52        5D-1        0.00000   0.00000   0.00000   0.00000   0.00000
  53        5D+2        0.00214   0.00010  -0.00038  -0.00591  -0.01311
  54        5D-2       -0.00057   0.00007  -0.00053   0.00158   0.00455
  55 4   H  1S         -0.00033   0.00001  -0.00009   0.01908   0.05984
  56        2S         -0.00079   0.00000  -0.00194   0.01838   0.05750
  57        3S          0.00076   0.00057   0.00161  -0.01247  -0.01102
  58        4PX         0.00075  -0.00000   0.00218  -0.00418  -0.01396
  59        4PY        -0.00008   0.00014  -0.00072   0.00395   0.00924
  60        4PZ         0.00000   0.00000   0.00000   0.00000   0.00000
                           6         7         8         9        10
                           O         O         O         O         O
     Eigenvalues --    -0.63825  -0.55088  -0.54330  -0.47301  -0.34590
   1 1   N  1S          0.04065   0.00000  -0.03058   0.02800   0.01192
   2        2S          0.06492   0.00000  -0.04927   0.04539   0.01955
   3        2PX         0.08624   0.00000   0.20521   0.04211   0.04776
   4        2PY         0.09360   0.00000  -0.02721  -0.11967   0.04251
   5        2PZ         0.00000   0.23086   0.00000   0.00000   0.00000
   6        3S         -0.20280   0.00000   0.15192  -0.14455  -0.06539
   7        3PX         0.13314   0.00000   0.31335   0.06270   0.07340
   8        3PY         0.12825   0.00000  -0.03788  -0.15815   0.05924
   9        3PZ         0.00000   0.35372   0.00000   0.00000   0.00000
  10        4S         -0.21004   0.00000   0.17586  -0.15994  -0.05580
  11        4PX         0.08194   0.00000   0.22829   0.05086   0.03924
  12        4PY         0.07226   0.00000  -0.04203  -0.12461   0.08726
  13        4PZ         0.00000   0.23944   0.00000   0.00000   0.00000
  14        5D 0       -0.00067   0.00000  -0.00031   0.00067   0.00054
  15        5D+1        0.00000  -0.00166   0.00000   0.00000   0.00000
  16        5D-1        0.00000   0.00821   0.00000   0.00000   0.00000
  17        5D+2       -0.00209   0.00000  -0.00273  -0.00005  -0.00337
  18        5D-2       -0.00714   0.00000   0.01124   0.00679   0.04739
  19 2   N  1S         -0.02858   0.00000   0.02755  -0.07521   0.00043
  20        2S         -0.04529   0.00000   0.04399  -0.11975   0.00050
  21        2PX         0.04053   0.00000   0.13412   0.02141   0.15125
  22        2PY         0.00347   0.00000  -0.02086   0.21454  -0.01226
  23        2PZ         0.00000   0.14698   0.00000   0.00000   0.00000
  24        3S          0.13090   0.00000  -0.12918   0.33902   0.00130
  25        3PX         0.06388   0.00000   0.20536   0.03454   0.22484
  26        3PY         0.00700   0.00000  -0.02600   0.28448  -0.01442
  27        3PZ         0.00000   0.22636   0.00000   0.00000   0.00000
  28        4S          0.12190   0.00000  -0.13471   0.59304  -0.06621
  29        4PX         0.02400   0.00000   0.10722   0.02564   0.20885
  30        4PY        -0.00096   0.00000  -0.01853   0.15106   0.00980
  31        4PZ         0.00000   0.11818   0.00000   0.00000   0.00000
  32        5D 0       -0.00036   0.00000  -0.00141   0.01285  -0.00167
  33        5D+1        0.00000   0.00236   0.00000   0.00000   0.00000
  34        5D-1        0.00000  -0.03823   0.00000   0.00000   0.00000
  35        5D+2        0.00120   0.00000   0.00141   0.02427  -0.00010
  36        5D-2       -0.01313   0.00000  -0.03394  -0.00429  -0.02154
  37 3   N  1S         -0.04192   0.00000   0.04084   0.00143  -0.04759
  38        2S         -0.06590   0.00000   0.06491   0.00213  -0.07609
  39        2PX         0.11652   0.00000   0.05597  -0.01193  -0.19777
  40        2PY        -0.14006   0.00000   0.07224   0.06229  -0.07613
  41        2PZ         0.00000   0.09671   0.00000   0.00000   0.00000
  42        3S          0.18089   0.00000  -0.18633  -0.00174   0.21815
  43        3PX         0.17499   0.00000   0.08727  -0.01617  -0.28144
  44        3PY        -0.20186   0.00000   0.09902   0.09360  -0.10430
  45        3PZ         0.00000   0.15284   0.00000   0.00000   0.00000
  46        4S          0.23165   0.00000  -0.24447  -0.04404   0.40779
  47        4PX         0.08136   0.00000   0.03561  -0.01639  -0.26098
  48        4PY        -0.06379   0.00000   0.05158   0.04863  -0.09073
  49        4PZ         0.00000   0.08526   0.00000   0.00000   0.00000
  50        5D 0        0.00000   0.00000  -0.00332  -0.00250   0.01153
  51        5D+1        0.00000   0.00720   0.00000   0.00000   0.00000
  52        5D-1        0.00000   0.02559   0.00000   0.00000   0.00000
  53        5D+2        0.02826   0.00000  -0.00241  -0.00922  -0.00740
  54        5D-2        0.00070   0.00000   0.02790   0.00827  -0.01734
  55 4   H  1S          0.15982   0.00000  -0.03117  -0.03576  -0.08865
  56        2S          0.19938   0.00000  -0.02643  -0.05016  -0.16149
  57        3S          0.04137   0.00000  -0.01617  -0.01725  -0.04310
  58        4PX        -0.01976   0.00000   0.00652   0.00263   0.00175
  59        4PY         0.00429   0.00000   0.00744   0.00260  -0.01972
  60        4PZ         0.00000   0.00864   0.00000   0.00000   0.00000
                          11        12        13        14        15
                           O         V         V         V         V
     Eigenvalues --    -0.29435  -0.01642   0.02498   0.03952   0.24118
   1 1   N  1S          0.00000   0.00095   0.00000  -0.00685  -0.06658
   2        2S          0.00000   0.00107   0.00000  -0.01094  -0.10798
   3        2PX         0.00000  -0.21703   0.00000   0.06060  -0.03383
   4        2PY         0.00000  -0.00893   0.00000  -0.01478  -0.09027
   5        2PZ        -0.00180   0.00000   0.23946   0.00000   0.00000
   6        3S          0.00000   0.01016   0.00000   0.01292   0.24815
   7        3PX         0.00000  -0.33629   0.00000   0.09739  -0.04354
   8        3PY         0.00000  -0.03199   0.00000  -0.05110  -0.12856
   9        3PZ        -0.00076   0.00000   0.37299   0.00000   0.00000
  10        4S          0.00000  -0.12096   0.00000   0.12470   2.68850
  11        4PX         0.00000  -0.49958   0.00000   0.15738  -0.21188
  12        4PY         0.00000   0.15819   0.00000   0.28130  -0.55294
  13        4PZ         0.01789   0.00000   0.58907   0.00000   0.00000
  14        5D 0        0.00000  -0.00070   0.00000   0.00943   0.03578
  15        5D+1        0.00093   0.00000   0.00228   0.00000   0.00000
  16        5D-1       -0.05847   0.00000  -0.01124   0.00000   0.00000
  17        5D+2        0.00000  -0.00070   0.00000   0.02379   0.05790
  18        5D-2        0.00000   0.02969   0.00000   0.00297  -0.00383
  19 2   N  1S          0.00000   0.00044   0.00000   0.01304   0.04561
  20        2S          0.00000   0.00045   0.00000   0.02177   0.07785
  21        2PX         0.00000   0.21362   0.00000  -0.06721   0.01738
  22        2PY         0.00000   0.01019   0.00000   0.03473   0.14134
  23        2PZ        -0.18170   0.00000  -0.20060   0.00000   0.00000
  24        3S          0.00000  -0.00026   0.00000  -0.09358  -0.32030
  25        3PX         0.00000   0.30413   0.00000  -0.09958   0.02095
  26        3PY         0.00000   0.01087   0.00000   0.04838   0.21146
  27        3PZ        -0.26931   0.00000  -0.28271   0.00000   0.00000
  28        4S          0.00000  -0.11998   0.00000  -0.26579  -0.49206
  29        4PX         0.00000   0.53352   0.00000  -0.17690   0.10325
  30        4PY         0.00000   0.07028   0.00000   0.12346   0.52578
  31        4PZ        -0.27905   0.00000  -0.55660   0.00000   0.00000
  32        5D 0        0.00000  -0.00137   0.00000  -0.00217   0.00023
  33        5D+1       -0.00136   0.00000   0.00106   0.00000   0.00000
  34        5D-1        0.01907   0.00000  -0.01444   0.00000   0.00000
  35        5D+2        0.00000  -0.00291   0.00000  -0.00149  -0.00114
  36        5D-2        0.00000   0.00901   0.00000  -0.00294   0.00527
  37 3   N  1S          0.00000   0.02240   0.00000   0.03673   0.04804
  38        2S          0.00000   0.03535   0.00000   0.05778   0.07989
  39        2PX         0.00000   0.04527   0.00000  -0.12315   0.04100
  40        2PY         0.00000   0.05594   0.00000  -0.00447  -0.22310
  41        2PZ         0.23375   0.00000  -0.15610   0.00000   0.00000
  42        3S          0.00000  -0.08542   0.00000  -0.15233  -0.26497
  43        3PX         0.00000   0.05491   0.00000  -0.14734   0.05952
  44        3PY         0.00000   0.07270   0.00000  -0.05229  -0.33971
  45        3PZ         0.34755   0.00000  -0.21461   0.00000   0.00000
  46        4S          0.00000  -0.29157   0.00000  -0.60359  -1.22300
  47        4PX         0.00000   0.07281   0.00000  -0.41933   0.10744
  48        4PY         0.00000   0.22524   0.00000   0.24502  -1.26635
  49        4PZ         0.37869   0.00000  -0.43029   0.00000   0.00000
  50        5D 0        0.00000  -0.00619   0.00000   0.00144  -0.00471
  51        5D+1        0.01609   0.00000  -0.00933   0.00000   0.00000
  52        5D-1        0.02114   0.00000   0.01973   0.00000   0.00000
  53        5D+2        0.00000   0.00263   0.00000  -0.00351  -0.01463
  54        5D-2        0.00000  -0.02537   0.00000  -0.00385  -0.01310
  55 4   H  1S          0.00000   0.09288   0.00000   0.02568  -0.00142
  56        2S          0.00000   0.20135   0.00000  -0.12312   0.01527
  57        3S          0.00000   0.45068   0.00000   1.54073  -0.47246
  58        4PX         0.00000   0.00272   0.00000   0.02416  -0.01725
  59        4PY         0.00000  -0.00493   0.00000  -0.01243  -0.02751
  60        4PZ         0.02451   0.00000  -0.02277   0.00000   0.00000
                          16        17        18        19        20
                           V         V         V         V         V
     Eigenvalues --     0.38071   0.43330   0.45952   0.50137   0.51403
   1 1   N  1S         -0.00370   0.00079  -0.05437   0.00000  -0.01208
   2        2S         -0.00351  -0.00081  -0.10203   0.00000  -0.02271
   3        2PX         0.06401   0.04387   0.03689   0.00000  -0.10314
   4        2PY         0.03866  -0.14377   0.01232   0.00000  -0.03633
   5        2PZ         0.00000   0.00000   0.00000  -0.11417   0.00000
   6        3S         -0.08760   0.07962   0.73153   0.00000   0.14023
   7        3PX         0.11136   0.12506   0.11245   0.00000  -0.44183
   8        3PY         0.09584  -0.19602  -0.03018   0.00000  -0.06758
   9        3PZ         0.00000   0.00000   0.00000  -0.46646   0.00000
  10        4S          0.96008  -2.29093   1.68882   0.00000  -0.34282
  11        4PX         0.36906   0.12707  -0.19441   0.00000   0.65756
  12        4PY         0.55662  -5.95509   0.22531   0.00000  -0.71091
  13        4PZ         0.00000   0.00000   0.00000   0.60779   0.00000
  14        5D 0       -0.01444  -0.01187  -0.00248   0.00000  -0.00285
  15        5D+1        0.00000   0.00000   0.00000   0.00508   0.00000
  16        5D-1        0.00000   0.00000   0.00000  -0.00821   0.00000
  17        5D+2        0.02166   0.00006   0.00085   0.00000   0.00968
  18        5D-2        0.02507   0.00690   0.01254   0.00000  -0.01092
  19 2   N  1S          0.01771  -0.04267  -0.01320   0.00000  -0.01039
  20        2S          0.03068  -0.07036  -0.03403   0.00000  -0.01897
  21        2PX         0.00090   0.00980   0.00016   0.00000  -0.14863
  22        2PY         0.03367   0.01862  -0.05962   0.00000   0.00701
  23        2PZ         0.00000   0.00000   0.00000  -0.13763   0.00000
  24        3S         -0.11500   0.16835   0.39441   0.00000   0.09461
  25        3PX         0.06276   0.04788   0.03280   0.00000  -0.52806
  26        3PY         0.06799   0.07023  -0.33311   0.00000   0.00550
  27        3PZ         0.00000   0.00000   0.00000  -0.49904   0.00000
  28        4S         -0.88363   6.30151  -1.51898   0.00000   0.73724
  29        4PX        -0.34571   0.17525  -0.09437   0.00000   0.60181
  30        4PY         0.55585  -3.50224   1.47678   0.00000  -0.41788
  31        4PZ         0.00000   0.00000   0.00000   0.53782   0.00000
  32        5D 0        0.00073   0.00021  -0.02071   0.00000  -0.00132
  33        5D+1        0.00000   0.00000   0.00000  -0.00245   0.00000
  34        5D-1        0.00000   0.00000   0.00000   0.03836   0.00000
  35        5D+2        0.00664   0.00380  -0.03511   0.00000  -0.00731
  36        5D-2       -0.01382  -0.01021  -0.01736   0.00000   0.03692
  37 3   N  1S          0.02545   0.02201  -0.00030   0.00000  -0.00596
  38        2S          0.04550   0.03174  -0.00808   0.00000  -0.01254
  39        2PX        -0.13231  -0.01554  -0.04456   0.00000  -0.12329
  40        2PY         0.00087   0.03997   0.08013   0.00000  -0.02893
  41        2PZ         0.00000   0.00000   0.00000  -0.12456   0.00000
  42        3S         -0.18819   0.07693   0.20211   0.00000   0.10533
  43        3PX        -0.28219  -0.04044  -0.13591   0.00000  -0.40140
  44        3PY        -0.05047   0.15937   0.41401   0.00000  -0.05350
  45        3PZ         0.00000   0.00000   0.00000  -0.43701   0.00000
  46        4S         -0.32748  -4.63696  -0.84290   0.00000  -0.48252
  47        4PX        -0.95589  -0.73883   0.01100   0.00000   0.24278
  48        4PY         0.61683  -2.46467  -1.06014   0.00000  -0.29220
  49        4PZ         0.00000   0.00000   0.00000   0.39560   0.00000
  50        5D 0       -0.00608  -0.00061  -0.02150   0.00000  -0.01228
  51        5D+1        0.00000   0.00000   0.00000  -0.00584   0.00000
  52        5D-1        0.00000   0.00000   0.00000  -0.02303   0.00000
  53        5D+2        0.01205  -0.01873  -0.03947   0.00000  -0.01274
  54        5D-2       -0.01075   0.01227   0.00628   0.00000  -0.02607
  55 4   H  1S          0.11746   0.03413   0.01627   0.00000   0.02053
  56        2S          1.94125   0.92713   0.29877   0.00000   0.27650
  57        3S         -0.85966  -0.39109  -0.08084   0.00000  -0.46760
  58        4PX         0.00202  -0.04109  -0.01017   0.00000   0.02724
  59        4PY         0.02975   0.01103  -0.02130   0.00000  -0.00775
  60        4PZ         0.00000   0.00000   0.00000  -0.00770   0.00000
                          21        22        23        24        25
                           V         V         V         V         V
     Eigenvalues --     0.61545   0.61779   0.68363   0.69888   0.72628
   1 1   N  1S         -0.02574   0.00000   0.04545   0.01494   0.00000
   2        2S         -0.05010   0.00000   0.08935   0.02930   0.00000
   3        2PX         0.01469   0.00000   0.03895  -0.19056   0.00000
   4        2PY        -0.04663   0.00000  -0.09154   0.00142   0.00000
   5        2PZ         0.00000  -0.00233   0.00000   0.00000  -0.19997
   6        3S          0.33818   0.00000  -0.56247  -0.20061   0.00000
   7        3PX         0.06038   0.00000   0.11637  -0.63988   0.00000
   8        3PY        -0.10834   0.00000  -0.55828   0.01320   0.00000
   9        3PZ         0.00000  -0.00677   0.00000   0.00000  -0.67750
  10        4S         -1.11682   0.00000   0.34310   0.60931   0.00000
  11        4PX        -0.40270   0.00000  -0.32237   1.77514   0.00000
  12        4PY         1.77129   0.00000   1.15535  -1.63685   0.00000
  13        4PZ         0.00000  -0.05628   0.00000   0.00000   1.91473
  14        5D 0        0.02738   0.00000   0.00318  -0.02195   0.00000
  15        5D+1        0.00000  -0.00051   0.00000   0.00000   0.00537
  16        5D-1        0.00000   0.07939   0.00000   0.00000   0.00625
  17        5D+2        0.00640   0.00000  -0.00138  -0.00851   0.00000
  18        5D-2        0.06909   0.00000   0.02882   0.01825   0.00000
  19 2   N  1S         -0.02055   0.00000   0.06505   0.00980   0.00000
  20        2S         -0.03950   0.00000   0.12600   0.01966   0.00000
  21        2PX         0.11134   0.00000  -0.00012   0.14628   0.00000
  22        2PY         0.05221   0.00000  -0.16422  -0.02514   0.00000
  23        2PZ         0.00000   0.14513   0.00000   0.00000   0.11836
  24        3S          0.24095   0.00000  -0.97851  -0.14036   0.00000
  25        3PX         0.37804   0.00000   0.00277   0.51488   0.00000
  26        3PY         0.19411   0.00000  -0.52897  -0.09420   0.00000
  27        3PZ         0.00000   0.51228   0.00000   0.00000   0.42657
  28        4S         -1.23658   0.00000   0.43714   1.36896   0.00000
  29        4PX        -0.51356   0.00000   0.08222  -1.30648   0.00000
  30        4PY         0.04273   0.00000   0.23983  -0.39339   0.00000
  31        4PZ         0.00000  -0.79479   0.00000   0.00000  -1.28722
  32        5D 0       -0.00022   0.00000   0.00464   0.00145   0.00000
  33        5D+1        0.00000  -0.00005   0.00000   0.00000   0.00277
  34        5D-1        0.00000  -0.02498   0.00000   0.00000  -0.00263
  35        5D+2       -0.00532   0.00000   0.00659   0.00727   0.00000
  36        5D-2       -0.01861   0.00000  -0.00563  -0.00309   0.00000
  37 3   N  1S         -0.02028   0.00000  -0.02074   0.00649   0.00000
  38        2S         -0.03615   0.00000  -0.03910   0.01100   0.00000
  39        2PX        -0.15207   0.00000  -0.05206   0.01619   0.00000
  40        2PY        -0.09566   0.00000   0.04973   0.03582   0.00000
  41        2PZ         0.00000  -0.17908   0.00000   0.00000   0.08397
  42        3S          0.10664   0.00000   0.29348   0.00976   0.00000
  43        3PX        -0.52710   0.00000  -0.19544   0.03565   0.00000
  44        3PY        -0.22972   0.00000   0.10864   0.10449   0.00000
  45        3PZ         0.00000  -0.66304   0.00000   0.00000   0.32572
  46        4S          2.09180   0.00000   0.32634  -1.55643   0.00000
  47        4PX         1.58459   0.00000   0.45577  -0.83429   0.00000
  48        4PY         1.02563   0.00000  -0.13126  -1.00589   0.00000
  49        4PZ         0.00000   1.01309   0.00000   0.00000  -1.05022
  50        5D 0       -0.01878   0.00000   0.00569   0.00696   0.00000
  51        5D+1        0.00000  -0.00507   0.00000   0.00000   0.00328
  52        5D-1        0.00000  -0.03768   0.00000   0.00000   0.00933
  53        5D+2       -0.02969   0.00000   0.00969   0.00461   0.00000
  54        5D-2       -0.04610   0.00000  -0.01642   0.00555   0.00000
  55 4   H  1S         -0.00399   0.00000   0.01417  -0.02065   0.00000
  56        2S         -0.80057   0.00000  -0.00450   0.39049   0.00000
  57        3S          0.01759   0.00000  -0.13922  -0.28512   0.00000
  58        4PX         0.05688   0.00000  -0.01165   0.00361   0.00000
  59        4PY        -0.13090   0.00000  -0.05506   0.13154   0.00000
  60        4PZ         0.00000   0.01164   0.00000   0.00000  -0.00166
                          26        27        28        29        30
                           V         V         V         V         V
     Eigenvalues --     0.78797   0.99697   1.10590   1.14924   1.25149
   1 1   N  1S         -0.04701  -0.00161  -0.01247   0.07977   0.00000
   2        2S         -0.09102  -0.00467  -0.02644   0.15120   0.00000
   3        2PX        -0.02291  -0.00373  -0.02407   0.01736   0.00000
   4        2PY        -0.11139  -0.32750  -0.05725  -0.15623   0.00000
   5        2PZ         0.00000   0.00000   0.00000   0.00000   0.01154
   6        3S          0.70357   0.17873   0.24107  -1.31783   0.00000
   7        3PX        -0.07424   0.00252  -0.13270   0.00012   0.00000
   8        3PY        -0.49884  -0.41475  -0.39218  -0.07552   0.00000
   9        3PZ         0.00000   0.00000   0.00000   0.00000  -0.01971
  10        4S         -1.46879  -2.22336   0.87941   8.30638   0.00000
  11        4PX         0.65307   0.01456   0.24901  -0.18981   0.00000
  12        4PY         1.76671   0.80780  12.68211   3.16822   0.00000
  13        4PZ         0.00000   0.00000   0.00000   0.00000   0.24503
  14        5D 0       -0.01485   0.02928   0.07323  -0.16054   0.00000
  15        5D+1        0.00000   0.00000   0.00000   0.00000   0.13734
  16        5D-1        0.00000   0.00000   0.00000   0.00000   0.09502
  17        5D+2        0.04382   0.01430  -0.00366  -0.24682   0.00000
  18        5D-2       -0.00683  -0.06223   0.11551   0.01320   0.00000
  19 2   N  1S         -0.00708  -0.04587  -0.00855  -0.07986   0.00000
  20        2S         -0.01715  -0.08589  -0.02144  -0.15128   0.00000
  21        2PX        -0.00082   0.02299  -0.02867   0.00330   0.00000
  22        2PY        -0.01045  -0.23188   0.06882  -0.15193   0.00000
  23        2PZ         0.00000   0.00000   0.00000   0.00000  -0.02500
  24        3S          0.09179   0.48283   0.23947   1.26320   0.00000
  25        3PX         0.03215   0.04755  -0.05139  -0.01799   0.00000
  26        3PY        -0.14154  -0.57040   0.41776   0.11275   0.00000
  27        3PZ         0.00000   0.00000   0.00000   0.00000  -0.04135
  28        4S         -0.78200  -0.00151 -11.03217  -7.44046   0.00000
  29        4PX        -0.32173   0.00468  -0.59795  -0.20189   0.00000
  30        4PY         0.18077   0.24802   3.74933   3.30717   0.00000
  31        4PZ         0.00000   0.00000   0.00000   0.00000  -0.07261
  32        5D 0       -0.03008   0.04418   0.01855   0.10443   0.00000
  33        5D+1        0.00000   0.00000   0.00000   0.00000   0.03872
  34        5D-1        0.00000   0.00000   0.00000   0.00000  -0.05538
  35        5D+2       -0.03327   0.06536   0.02384   0.18715   0.00000
  36        5D-2       -0.01747   0.03152  -0.07539   0.00802   0.00000
  37 3   N  1S         -0.05674   0.08274   0.03781  -0.02283   0.00000
  38        2S         -0.11261   0.16023   0.07834  -0.04458   0.00000
  39        2PX         0.10381  -0.02541   0.03830   0.01622   0.00000
  40        2PY        -0.16886  -0.17968   0.08358   0.01386   0.00000
  41        2PZ         0.00000   0.00000   0.00000   0.00000  -0.01682
  42        3S          0.92987  -1.21968  -0.85872   0.52580   0.00000
  43        3PX         0.21054   0.10612   0.29978  -0.07996   0.00000
  44        3PY        -0.35146  -0.40724   0.44838  -0.06670   0.00000
  45        3PZ         0.00000   0.00000   0.00000   0.00000  -0.00966
  46        4S         -0.51989   2.98220  10.86418  -1.25605   0.00000
  47        4PX        -1.46908   0.28207   0.62893  -0.15040   0.00000
  48        4PY         1.50002   1.32599   4.12932  -0.64210   0.00000
  49        4PZ         0.00000   0.00000   0.00000   0.00000  -0.42339
  50        5D 0       -0.02842  -0.04576  -0.00512   0.01486   0.00000
  51        5D+1        0.00000   0.00000   0.00000   0.00000   0.28904
  52        5D-1        0.00000   0.00000   0.00000   0.00000  -0.10385
  53        5D+2       -0.09343  -0.04058  -0.02926   0.00811   0.00000
  54        5D-2        0.04637   0.01515  -0.13701  -0.03640   0.00000
  55 4   H  1S         -0.02548  -0.00571   0.12083  -0.02804   0.00000
  56        2S          0.91830  -0.42959  -0.94075   0.44682   0.00000
  57        3S          0.98480  -0.13599   0.03402  -0.06599   0.00000
  58        4PX        -0.25749   0.18590   0.11012  -0.15393   0.00000
  59        4PY         0.05112  -0.02688  -0.38102  -0.05930   0.00000
  60        4PZ         0.00000   0.00000   0.00000   0.00000   0.86812
                          31        32        33        34        35
                           V         V         V         V         V
     Eigenvalues --     1.42939   1.54608   1.63677   1.65476   1.70515
   1 1   N  1S          0.00249   0.00000  -0.00366   0.00000   0.00538
   2        2S          0.00563   0.00000  -0.00697   0.00000   0.01042
   3        2PX        -0.00418   0.00000   0.02518   0.00000  -0.02952
   4        2PY         0.05355   0.00000  -0.03266   0.00000   0.06145
   5        2PZ         0.00000   0.00763   0.00000   0.00738   0.00000
   6        3S          0.03438   0.00000   0.06883   0.00000  -0.04120
   7        3PX        -0.10357   0.00000   0.03436   0.00000  -0.02397
   8        3PY         0.37469   0.00000  -0.04265   0.00000   0.10700
   9        3PZ         0.00000  -0.05812   0.00000   0.01101   0.00000
  10        4S         -3.58710   0.00000  -0.15476   0.00000  -0.89743
  11        4PX         0.59615   0.00000  -0.29102   0.00000   0.45529
  12        4PY        -8.54685   0.00000   0.75107   0.00000   0.04662
  13        4PZ         0.00000   0.06540   0.00000  -0.07855   0.00000
  14        5D 0        0.09888   0.00000  -0.53548   0.00000  -0.26980
  15        5D+1        0.00000  -0.12245   0.00000   0.70939   0.00000
  16        5D-1        0.00000   0.54978   0.00000   0.07946   0.00000
  17        5D+2       -0.01543   0.00000   0.34689   0.00000   0.17218
  18        5D-2        0.28811   0.00000   0.21614   0.00000  -0.36992
  19 2   N  1S          0.01141   0.00000  -0.00223   0.00000   0.00681
  20        2S          0.02555   0.00000  -0.00572   0.00000   0.01453
  21        2PX        -0.03357   0.00000  -0.03122   0.00000   0.06742
  22        2PY        -0.06621   0.00000  -0.00354   0.00000   0.01304
  23        2PZ         0.00000  -0.09438   0.00000  -0.00658   0.00000
  24        3S         -0.30778   0.00000   0.04308   0.00000  -0.12777
  25        3PX        -0.05554   0.00000  -0.05603   0.00000   0.12154
  26        3PY        -0.30925   0.00000  -0.03359   0.00000   0.05252
  27        3PZ         0.00000  -0.17819   0.00000  -0.01245   0.00000
  28        4S          8.81108   0.00000  -0.57705   0.00000   0.41979
  29        4PX         0.11795   0.00000   0.10003   0.00000  -0.21465
  30        4PY        -3.24091   0.00000   0.21534   0.00000  -0.23314
  31        4PZ         0.00000   0.02394   0.00000   0.03305   0.00000
  32        5D 0        0.00498   0.00000  -0.39746   0.00000  -0.27974
  33        5D+1        0.00000  -0.02430   0.00000   0.56233   0.00000
  34        5D-1        0.00000  -0.38107   0.00000   0.01125   0.00000
  35        5D+2       -0.02641   0.00000   0.25349   0.00000   0.09779
  36        5D-2       -0.16313   0.00000  -0.08638   0.00000   0.30416
  37 3   N  1S          0.00926   0.00000   0.01968   0.00000  -0.00439
  38        2S          0.01745   0.00000   0.04108   0.00000  -0.00454
  39        2PX         0.05990   0.00000  -0.01081   0.00000   0.02773
  40        2PY        -0.01325   0.00000  -0.00875   0.00000   0.04296
  41        2PZ         0.00000   0.10778   0.00000   0.02548   0.00000
  42        3S         -0.06943   0.00000  -0.33803   0.00000  -0.07124
  43        3PX         0.03692   0.00000  -0.15122   0.00000   0.02094
  44        3PY        -0.21826   0.00000   0.07228   0.00000   0.05666
  45        3PZ         0.00000   0.10834   0.00000   0.02121   0.00000
  46        4S         -5.25135   0.00000   1.08753   0.00000   0.31614
  47        4PX        -0.53030   0.00000   0.55081   0.00000  -0.46746
  48        4PY        -1.58698   0.00000   0.10399   0.00000   0.67504
  49        4PZ         0.00000   0.00904   0.00000   0.13137   0.00000
  50        5D 0        0.07479   0.00000  -0.14861   0.00000   0.10952
  51        5D+1        0.00000  -0.15930   0.00000   0.06655   0.00000
  52        5D-1        0.00000  -0.42527   0.00000  -0.07671   0.00000
  53        5D+2       -0.07422   0.00000   0.06663   0.00000  -0.10611
  54        5D-2       -0.29654   0.00000  -0.16568   0.00000   0.19374
  55 4   H  1S          0.08190   0.00000   0.17386   0.00000  -0.45272
  56        2S          0.14815   0.00000  -0.65365   0.00000   0.99272
  57        3S          0.02619   0.00000   0.10699   0.00000  -0.26299
  58        4PX        -0.34052   0.00000  -0.16135   0.00000  -0.17272
  59        4PY        -0.58202   0.00000   0.28122   0.00000  -0.62331
  60        4PZ         0.00000  -0.13503   0.00000  -0.26827   0.00000
                          36        37        38        39        40
                           V         V         V         V         V
     Eigenvalues --     1.85845   2.10646   2.10731   2.24735   2.29125
   1 1   N  1S          0.00576   0.00249   0.00000   0.00000   0.00422
   2        2S          0.01216   0.00629   0.00000   0.00000   0.01254
   3        2PX        -0.05453  -0.02896   0.00000   0.00000  -0.15634
   4        2PY         0.01482   0.00956   0.00000   0.00000   0.02786
   5        2PZ         0.00000   0.00000  -0.01761   0.19692   0.00000
   6        3S         -0.11822  -0.00516   0.00000   0.00000  -0.08092
   7        3PX        -0.03868   0.02402   0.00000   0.00000  -0.00851
   8        3PY         0.03107   0.03145   0.00000   0.00000   0.04836
   9        3PZ         0.00000   0.00000  -0.01277   0.06012   0.00000
  10        4S          0.63574  -0.17353   0.00000   0.00000  -0.39778
  11        4PX        -0.13581  -0.06590   0.00000   0.00000  -0.30155
  12        4PY        -0.75856   1.43823   0.00000   0.00000   1.30273
  13        4PZ         0.00000   0.00000   0.04890   0.62057   0.00000
  14        5D 0       -0.05183  -0.40521   0.00000   0.00000   0.28727
  15        5D+1        0.00000   0.00000  -0.54158   0.02271   0.00000
  16        5D-1        0.00000   0.00000  -0.03336  -0.04751   0.00000
  17        5D+2       -0.02286   0.28632   0.00000   0.00000  -0.23511
  18        5D-2        0.28044   0.01977   0.00000   0.00000  -0.10652
  19 2   N  1S          0.00144   0.00248   0.00000   0.00000   0.00560
  20        2S          0.00300   0.00366   0.00000   0.00000   0.01288
  21        2PX        -0.06169  -0.01332   0.00000   0.00000  -0.00726
  22        2PY        -0.00007   0.02456   0.00000   0.00000   0.01086
  23        2PZ         0.00000   0.00000  -0.00057   0.02624   0.00000
  24        3S         -0.01898  -0.02661   0.00000   0.00000  -0.11873
  25        3PX        -0.09827  -0.00886   0.00000   0.00000  -0.02318
  26        3PY         0.00614   0.02255   0.00000   0.00000   0.09823
  27        3PZ         0.00000   0.00000  -0.00150   0.05796   0.00000
  28        4S          0.39884  -1.08148   0.00000   0.00000  -0.83844
  29        4PX         0.18087   0.01412   0.00000   0.00000   0.18848
  30        4PY        -0.11378   0.36712   0.00000   0.00000   0.23037
  31        4PZ         0.00000   0.00000  -0.00963  -0.40296   0.00000
  32        5D 0       -0.16038   0.63561   0.00000   0.00000  -0.29432
  33        5D+1        0.00000   0.00000   0.78780  -0.06788   0.00000
  34        5D-1        0.00000   0.00000   0.01410   0.72128   0.00000
  35        5D+2        0.12845  -0.35581   0.00000   0.00000   0.13703
  36        5D-2       -0.33848  -0.12945   0.00000   0.00000  -0.44903
  37 3   N  1S         -0.02186   0.01774   0.00000   0.00000   0.02953
  38        2S         -0.04266   0.04579   0.00000   0.00000   0.06983
  39        2PX         0.15646   0.07769   0.00000   0.00000  -0.02358
  40        2PY        -0.05227   0.00765   0.00000   0.00000   0.04326
  41        2PZ         0.00000   0.00000  -0.02931   0.01116   0.00000
  42        3S          0.29627  -0.47837   0.00000   0.00000  -0.64310
  43        3PX         0.20414  -0.37108   0.00000   0.00000  -0.48807
  44        3PY        -0.13202   0.21142   0.00000   0.00000   0.17338
  45        3PZ         0.00000   0.00000  -0.00836   0.04728   0.00000
  46        4S         -1.06534   1.12347   0.00000   0.00000   1.08097
  47        4PX        -0.27101  -0.04437   0.00000   0.00000   0.10046
  48        4PY        -0.45786   0.66109   0.00000   0.00000   0.83657
  49        4PZ         0.00000   0.00000  -0.13849  -0.41042   0.00000
  50        5D 0        0.29972  -0.11439   0.00000   0.00000  -0.39610
  51        5D+1        0.00000   0.00000  -0.38466  -0.33213   0.00000
  52        5D-1        0.00000   0.00000   0.12454  -0.70774   0.00000
  53        5D+2       -0.26820  -0.12127   0.00000   0.00000  -0.00750
  54        5D-2        0.07655   0.08727   0.00000   0.00000   0.52923
  55 4   H  1S         -0.73021  -0.68108   0.00000   0.00000  -0.42879
  56        2S          1.14267   1.28412   0.00000   0.00000   1.09775
  57        3S         -0.49861  -0.31281   0.00000   0.00000  -0.14425
  58        4PX         0.50461  -0.52039   0.00000   0.00000  -0.81183
  59        4PY         0.12061   0.14156   0.00000   0.00000   0.02413
  60        4PZ         0.00000   0.00000   0.36047   0.15197   0.00000
                          41        42        43        44        45
                           V         V         V         V         V
     Eigenvalues --     2.38288   2.41055   2.46029   2.68849   2.87680
   1 1   N  1S         -0.00711   0.00000   0.01182   0.00140   0.00607
   2        2S         -0.02056   0.00000   0.03805  -0.01152   0.01740
   3        2PX         0.11355   0.00000   0.14734   0.05776   0.07292
   4        2PY        -0.06362   0.00000   0.05199   0.17900  -0.12895
   5        2PZ         0.00000   0.06920   0.00000   0.00000   0.00000
   6        3S          0.23690   0.00000  -0.32273   0.24849  -0.17891
   7        3PX         0.05534   0.00000   0.05225  -0.03895  -0.01826
   8        3PY        -0.01188   0.00000  -0.00258   0.71077  -0.52370
   9        3PZ         0.00000   0.00815   0.00000   0.00000   0.00000
  10        4S          1.08944   0.00000  -0.86264  -0.36395  -0.73050
  11        4PX         0.33103   0.00000   0.22010  -0.03699  -0.03132
  12        4PY         0.41275   0.00000   1.84244   1.10751   0.38706
  13        4PZ         0.00000   0.05772   0.00000   0.00000   0.00000
  14        5D 0        0.44044   0.00000  -0.06742   0.15380   0.11181
  15        5D+1        0.00000  -0.44512   0.00000   0.00000   0.00000
  16        5D-1        0.00000   0.04123   0.00000   0.00000   0.00000
  17        5D+2        0.14086   0.00000  -0.40451   0.15313   0.02411
  18        5D-2        0.05898   0.00000   0.09203   0.18156   0.35334
  19 2   N  1S         -0.00884   0.00000   0.01289   0.00863  -0.01125
  20        2S         -0.02748   0.00000   0.03651   0.00892  -0.02248
  21        2PX        -0.02325   0.00000  -0.02937  -0.04808  -0.05593
  22        2PY         0.09171   0.00000  -0.09170   0.28113  -0.20650
  23        2PZ         0.00000  -0.00509   0.00000   0.00000   0.00000
  24        3S          0.29827   0.00000  -0.39355   0.07658   0.07912
  25        3PX         0.03032   0.00000  -0.01169   0.00749   0.00851
  26        3PY        -0.25293   0.00000   0.36097  -0.12037  -0.06955
  27        3PZ         0.00000   0.00375   0.00000   0.00000   0.00000
  28        4S         -0.99811   0.00000  -0.75215  -1.35292   0.36325
  29        4PX        -0.22124   0.00000  -0.18835  -0.11233  -0.07173
  30        4PY         0.58574   0.00000  -0.07801   0.84995  -0.38798
  31        4PZ         0.00000  -0.07222   0.00000   0.00000   0.00000
  32        5D 0       -0.03570   0.00000  -0.28026   0.36737  -0.29394
  33        5D+1        0.00000   0.27125   0.00000   0.00000   0.00000
  34        5D-1        0.00000   0.20623   0.00000   0.00000   0.00000
  35        5D+2        0.28388   0.00000  -0.37727   0.66128  -0.47501
  36        5D-2        0.38583   0.00000   0.37874   0.27409   0.23793
  37 3   N  1S          0.00872   0.00000   0.02250  -0.02695  -0.01509
  38        2S          0.02561   0.00000   0.05296  -0.05423  -0.03236
  39        2PX         0.05656   0.00000   0.02998   0.22153   0.43458
  40        2PY        -0.05243   0.00000   0.11113   0.13528  -0.23592
  41        2PZ         0.00000   0.04230   0.00000   0.00000   0.00000
  42        3S         -0.16469   0.00000  -0.52323   0.16205   0.14751
  43        3PX        -0.61113   0.00000  -0.09442   0.28427   0.11214
  44        3PY         0.50844   0.00000  -0.20349  -0.06736  -0.02223
  45        3PZ         0.00000   0.00434   0.00000   0.00000   0.00000
  46        4S         -1.28916   0.00000   2.07471   2.35345   1.43698
  47        4PX        -0.84659   0.00000  -0.07718   0.67745   0.85891
  48        4PY        -0.29926   0.00000   1.07448   0.79708  -0.12053
  49        4PZ         0.00000   0.16167   0.00000   0.00000   0.00000
  50        5D 0        0.38005   0.00000  -0.32625  -0.79948  -0.38812
  51        5D+1        0.00000   0.89181   0.00000   0.00000   0.00000
  52        5D-1        0.00000  -0.29922   0.00000   0.00000   0.00000
  53        5D+2       -0.08564   0.00000  -0.60844  -0.17397   0.90365
  54        5D-2       -0.23251   0.00000  -0.32103  -0.07937  -0.19001
  55 4   H  1S         -0.75272   0.00000  -0.18029  -0.06028  -0.46831
  56        2S          2.38565   0.00000   0.31166  -1.20975  -0.95395
  57        3S         -0.32637   0.00000  -0.08730   0.00913  -0.27136
  58        4PX        -0.88871   0.00000  -0.03327   0.68893   0.76368
  59        4PY         0.60718   0.00000   0.33561  -0.32856  -0.46383
  60        4PZ         0.00000  -0.59840   0.00000   0.00000   0.00000
                          46        47        48        49        50
                           V         V         V         V         V
     Eigenvalues --     3.05743   3.21660   3.51458   3.55253   3.62711
   1 1   N  1S          0.00000   0.00618   0.00000  -0.04055  -0.03706
   2        2S          0.00000   0.01296   0.00000  -0.07592  -0.07107
   3        2PX         0.00000   0.14050   0.00000  -0.45961   0.82580
   4        2PY         0.00000   0.03445   0.00000   0.16510   0.10745
   5        2PZ         0.11357   0.00000  -0.84505   0.00000   0.00000
   6        3S          0.00000  -0.06984   0.00000   0.35098   0.35438
   7        3PX         0.00000  -0.17641   0.00000   0.47484  -0.97111
   8        3PY         0.00000  -0.12226   0.00000   0.22440   0.21074
   9        3PZ        -0.01254   0.00000   0.92021   0.00000   0.00000
  10        4S          0.00000  -0.08967   0.00000   2.82963   2.00856
  11        4PX         0.00000  -0.13081   0.00000  -0.28767   0.38990
  12        4PY         0.00000   1.20054   0.00000   1.21404  -0.25812
  13        4PZ         0.10750   0.00000  -0.28429   0.00000   0.00000
  14        5D 0        0.00000   0.09834   0.00000  -0.59125  -0.48294
  15        5D+1       -0.00800   0.00000  -0.00239   0.00000   0.00000
  16        5D-1        0.98179   0.00000   0.03660   0.00000   0.00000
  17        5D+2        0.00000   0.10999   0.00000  -1.04514  -0.81266
  18        5D-2        0.00000  -0.88661   0.00000  -0.16654   0.23737
  19 2   N  1S          0.00000  -0.00190   0.00000   0.02895   0.02314
  20        2S          0.00000  -0.00535   0.00000   0.07481   0.06000
  21        2PX         0.00000   0.50417   0.00000  -0.37375   0.56570
  22        2PY         0.00000   0.05851   0.00000   0.37789   0.22754
  23        2PZ        -0.36606   0.00000  -0.74098   0.00000   0.00000
  24        3S          0.00000   0.03203   0.00000  -0.56013  -0.45281
  25        3PX         0.00000  -0.31003   0.00000   0.33326  -0.67165
  26        3PY         0.00000  -0.08692   0.00000   0.48796   0.43769
  27        3PZ         0.15585   0.00000   0.73082   0.00000   0.00000
  28        4S          0.00000  -0.88206   0.00000  -2.33869  -0.75649
  29        4PX         0.00000   0.31343   0.00000  -0.17258   0.13072
  30        4PY         0.00000   0.31588   0.00000   1.06542   0.42181
  31        4PZ        -0.29770   0.00000  -0.27658   0.00000   0.00000
  32        5D 0        0.00000  -0.06241   0.00000   0.29380   0.24289
  33        5D+1       -0.05963   0.00000  -0.01058   0.00000   0.00000
  34        5D-1        0.75084   0.00000   0.16825   0.00000   0.00000
  35        5D+2        0.00000   0.02433   0.00000   0.51188   0.39728
  36        5D-2        0.00000  -0.65445   0.00000   0.10726   0.09448
  37 3   N  1S          0.00000  -0.02035   0.00000   0.01717   0.03280
  38        2S          0.00000  -0.04012   0.00000   0.03594   0.06436
  39        2PX         0.00000   0.01625   0.00000  -0.18835   0.21279
  40        2PY         0.00000  -0.09055   0.00000  -0.55435  -0.19124
  41        2PZ         0.36841   0.00000  -0.59375   0.00000   0.00000
  42        3S          0.00000   0.20113   0.00000  -0.17602  -0.34233
  43        3PX         0.00000   0.22903   0.00000   0.27723  -0.38992
  44        3PY         0.00000   0.08114   0.00000   0.08343  -0.14120
  45        3PZ        -0.26391   0.00000   0.60977   0.00000   0.00000
  46        4S          0.00000   1.52244   0.00000   0.11343  -1.20286
  47        4PX         0.00000   0.29987   0.00000   0.12571  -0.14017
  48        4PY         0.00000   0.18526   0.00000  -0.45453  -0.49918
  49        4PZ         0.20628   0.00000  -0.18631   0.00000   0.00000
  50        5D 0        0.00000  -0.30050   0.00000   0.09453   0.31667
  51        5D+1        0.00808   0.00000   0.01899   0.00000   0.00000
  52        5D-1        0.61550   0.00000  -0.12707   0.00000   0.00000
  53        5D+2        0.00000   0.08857   0.00000   0.45540   0.25238
  54        5D-2        0.00000  -0.83157   0.00000  -0.35462   0.36267
  55 4   H  1S          0.00000  -0.30383   0.00000  -0.17927   0.10160
  56        2S          0.00000  -0.58496   0.00000  -0.20801   0.46290
  57        3S          0.00000  -0.08706   0.00000  -0.10991  -0.15837
  58        4PX         0.00000   0.61680   0.00000   0.26533  -0.33784
  59        4PY         0.00000   0.01918   0.00000  -0.04755  -0.01498
  60        4PZ         0.05775   0.00000  -0.05270   0.00000   0.00000
                          51        52        53        54        55
                           V         V         V         V         V
     Eigenvalues --     3.86370   3.92886   3.94151   4.04711   4.30055
   1 1   N  1S          0.00000   0.00126   0.00000  -0.08095   0.04976
   2        2S          0.00000   0.00247   0.00000  -0.16705   0.11558
   3        2PX         0.00000   0.79980   0.00000  -0.19852  -0.18518
   4        2PY         0.00000   0.06329   0.00000  -0.34243   0.18026
   5        2PZ         0.79049   0.00000   0.55493   0.00000   0.00000
   6        3S          0.00000  -0.01231   0.00000   1.10816  -0.94257
   7        3PX         0.00000  -1.16346   0.00000   0.17496   0.34459
   8        3PY         0.00000  -0.13231   0.00000   1.22414  -1.40312
   9        3PZ        -1.03167   0.00000  -0.84567   0.00000   0.00000
  10        4S          0.00000  -0.08522   0.00000   2.28274  -1.17884
  11        4PX         0.00000   0.64107   0.00000  -0.29703  -0.14975
  12        4PY         0.00000   0.23591   0.00000  -1.35755  -2.01809
  13        4PZ         0.63410   0.00000   0.42936   0.00000   0.00000
  14        5D 0        0.00000   0.01841   0.00000  -0.62770   0.31229
  15        5D+1        0.00783   0.00000   0.01879   0.00000   0.00000
  16        5D-1        0.28284   0.00000  -0.65411   0.00000   0.00000
  17        5D+2        0.00000   0.07488   0.00000  -1.08516   0.55867
  18        5D-2        0.00000  -0.48264   0.00000  -0.32991  -0.18639
  19 2   N  1S          0.00000  -0.00143   0.00000   0.04966  -0.04642
  20        2S          0.00000  -0.00339   0.00000   0.11736  -0.09452
  21        2PX         0.00000  -0.96732   0.00000  -0.10491  -0.12850
  22        2PY         0.00000  -0.04784   0.00000  -0.40964   0.82393
  23        2PZ        -0.08484   0.00000  -0.99801   0.00000   0.00000
  24        3S          0.00000   0.02526   0.00000  -0.88266   0.65078
  25        3PX         0.00000   1.32950   0.00000   0.07738   0.25553
  26        3PY         0.00000   0.03356   0.00000   1.76148  -2.05777
  27        3PZ         0.10830   0.00000   1.37813   0.00000   0.00000
  28        4S          0.00000  -0.11039   0.00000  -0.31877   2.70906
  29        4PX         0.00000  -0.61124   0.00000   0.07338   0.09166
  30        4PY         0.00000   0.00225   0.00000   0.03657  -0.69128
  31        4PZ        -0.21579   0.00000  -0.55402   0.00000   0.00000
  32        5D 0        0.00000  -0.01366   0.00000   0.44277  -0.41557
  33        5D+1       -0.00991   0.00000   0.03202   0.00000   0.00000
  34        5D-1        0.02628   0.00000  -0.46620   0.00000   0.00000
  35        5D+2        0.00000   0.02667   0.00000   0.78717  -0.70112
  36        5D-2        0.00000  -0.41192   0.00000  -0.03034  -0.19005
  37 3   N  1S          0.00000  -0.00193   0.00000   0.01782   0.02581
  38        2S          0.00000  -0.00406   0.00000   0.03520   0.04175
  39        2PX         0.00000  -0.01076   0.00000   0.63962   0.88054
  40        2PY         0.00000  -0.00289   0.00000   0.72225  -0.03012
  41        2PZ        -1.01302   0.00000   0.40242   0.00000   0.00000
  42        3S          0.00000   0.02678   0.00000  -0.07491  -0.23190
  43        3PX         0.00000   0.03892   0.00000  -0.91974  -1.52380
  44        3PY         0.00000   0.00876   0.00000  -1.17950   0.15108
  45        3PZ         1.24042   0.00000  -0.51259   0.00000   0.00000
  46        4S          0.00000   0.26456   0.00000  -2.13252  -1.88157
  47        4PX         0.00000  -0.11484   0.00000   0.23732   0.06203
  48        4PY         0.00000   0.07191   0.00000  -0.69109  -0.53818
  49        4PZ        -0.58060   0.00000   0.06283   0.00000   0.00000
  50        5D 0        0.00000  -0.01578   0.00000   0.31250   0.29327
  51        5D+1        0.03761   0.00000  -0.03108   0.00000   0.00000
  52        5D-1        0.20926   0.00000  -0.17693   0.00000   0.00000
  53        5D+2        0.00000   0.02177   0.00000   0.30925  -0.33809
  54        5D-2        0.00000  -0.08107   0.00000  -0.19812   0.13673
  55 4   H  1S          0.00000  -0.01451   0.00000   0.06580   0.45262
  56        2S          0.00000  -0.06508   0.00000   0.17549   0.62581
  57        3S          0.00000  -0.02880   0.00000  -0.07912   0.02233
  58        4PX         0.00000   0.05151   0.00000  -0.07661  -0.64384
  59        4PY         0.00000  -0.06078   0.00000   0.18443   0.34319
  60        4PZ        -0.06503   0.00000   0.02864   0.00000   0.00000
                          56        57        58        59        60
                           V         V         V         V         V
     Eigenvalues --     4.43858   5.00843  34.96037  35.49633  36.37096
   1 1   N  1S          0.00264   0.02330  -1.43637   0.17293  -1.59522
   2        2S         -0.00892   0.02353   1.50989  -0.18500   1.74631
   3        2PX        -0.11790  -0.02328   0.00022  -0.00012  -0.00500
   4        2PY         1.07644  -0.81340  -0.02025   0.07415   0.04534
   5        2PZ         0.00000   0.00000   0.00000   0.00000   0.00000
   6        3S          0.12620   0.03961  -0.21723   0.00964  -0.55960
   7        3PX         0.17603   0.02796   0.00123   0.00536   0.03371
   8        3PY        -1.42453   2.82468   0.09855  -0.29910  -0.39352
   9        3PZ         0.00000   0.00000   0.00000   0.00000   0.00000
  10        4S          1.53250  -0.05587  -0.06768   0.03716  -0.03946
  11        4PX        -0.19914  -0.02740   0.00292  -0.00813   0.00103
  12        4PY         5.11676  -0.00572  -0.12428   0.53020   0.13631
  13        4PZ         0.00000   0.00000   0.00000   0.00000   0.00000
  14        5D 0        0.05196   0.13273   0.00692  -0.01881   0.17600
  15        5D+1        0.00000   0.00000   0.00000   0.00000   0.00000
  16        5D-1        0.00000   0.00000   0.00000   0.00000   0.00000
  17        5D+2        0.08921   0.25888   0.01318  -0.03349   0.30374
  18        5D-2       -0.10953  -0.25371  -0.00603   0.01526   0.02004
  19 2   N  1S         -0.01094   0.04618  -1.43591   0.77830   1.40020
  20        2S         -0.03756   0.08172   1.50423  -0.82860  -1.52778
  21        2PX         0.02079  -0.01833   0.00004   0.00091  -0.00486
  22        2PY        -0.74056  -0.37679   0.00077   0.02075   0.06906
  23        2PZ         0.00000   0.00000   0.00000   0.00000   0.00000
  24        3S          0.46181  -0.65297  -0.20655   0.16970   0.49863
  25        3PX         0.00834   0.02273   0.00064  -0.00159   0.03370
  26        3PY         0.66652   1.31220  -0.00614  -0.10160  -0.51450
  27        3PZ         0.00000   0.00000   0.00000   0.00000   0.00000
  28        4S         -4.86211  -0.44063   0.28357  -0.47499  -0.07962
  29        4PX        -0.13442  -0.01576   0.00919  -0.01245  -0.00803
  30        4PY         1.51096   0.01777  -0.09749   0.16954   0.06393
  31        4PZ         0.00000   0.00000   0.00000   0.00000   0.00000
  32        5D 0        0.06658   0.24169  -0.01173  -0.02353  -0.13486
  33        5D+1        0.00000   0.00000   0.00000   0.00000   0.00000
  34        5D-1        0.00000   0.00000   0.00000   0.00000   0.00000
  35        5D+2        0.11993   0.42629  -0.01981  -0.04140  -0.23173
  36        5D-2       -0.00986  -0.03399  -0.00446   0.00145  -0.02988
  37 3   N  1S          0.02961  -0.02932  -0.68569  -1.99461   0.40682
  38        2S          0.05300  -0.04415   0.71729   2.12075  -0.44328
  39        2PX         0.36380   0.41819   0.01508   0.02162  -0.00180
  40        2PY        -0.32396  -0.92682  -0.03866   0.02633  -0.03617
  41        2PZ         0.00000   0.00000   0.00000   0.00000   0.00000
  42        3S         -0.38178   0.13676  -0.11428  -0.40724   0.11233
  43        3PX        -0.72058  -0.94141  -0.06480  -0.10302   0.00671
  44        3PY         0.36858   2.19712   0.12114  -0.09491   0.14970
  45        3PZ         0.00000   0.00000   0.00000   0.00000   0.00000
  46        4S          2.88034   0.35856   0.03966   0.50487   0.07286
  47        4PX         0.21832   0.09969   0.01446   0.02496  -0.01389
  48        4PY         1.05373  -0.09019  -0.01689   0.19469   0.02621
[...]
  36         V                 1.845655          3.489783
  37         V                 2.090787          3.369196
  38         V                 2.101064          3.496252
  39         V                 2.229535          3.756173
  40         V                 2.266083          3.777525
  41         V                 2.373826          3.813314
  42         V                 2.400009          3.710082
  43         V                 2.460382          4.173565
  44         V                 2.673882          4.800401
  45         V                 2.852389          5.340516
  46         V                 3.035568          5.288771
  47         V                 3.197917          5.526241
  48         V                 3.510929          8.760878
  49         V                 3.520004          7.548788
  50         V                 3.627075          8.226604
  51         V                 3.864643          8.858368
  52         V                 3.913935          8.695691
  53         V                 3.922508          8.504534
  54         V                 4.063060          8.873213
  55         V                 4.294392          9.293287
  56         V                 4.391517          9.992264
  57         V                 5.014861          9.632418
  58         V                34.969598         89.010704
  59         V                35.483215         88.984564
  60         V                36.216400         89.154662
 Total kinetic energy from orbitals= 1.644079553075D+02
  Exact polarizability:  12.732  -5.097  36.346   0.000  -0.000   9.433
 Approx polarizability:  16.972 -10.613  82.241  -0.000  -0.000  11.936
 No NMR shielding tensors so no spin-rotation constants.
 Leave Link  601 at Fri Apr 25 16:17:23 2014, MaxMem=   65536000 cpu:       2.7
 (Enter /apps/gaussian/g09/l701.exe)
 Compute integral second derivatives.
 ... and contract with generalized density number  0.
 Leave Link  701 at Fri Apr 25 16:17:23 2014, MaxMem=   65536000 cpu:       2.0
 (Enter /apps/gaussian/g09/l702.exe)
 L702 exits ... SP integral derivatives will be done elsewhere.
 Leave Link  702 at Fri Apr 25 16:17:23 2014, MaxMem=   65536000 cpu:       0.1
 (Enter /apps/gaussian/g09/l703.exe)
 Compute integral second derivatives, UseDBF=F ICtDFT=           0.
 Integral derivatives from FoFDir, PRISM(SPDF).
 Calling FoFJK, ICntrl=    100127 FMM=F ISym2X=1 I1Cent= 0 IOpClX= 0 NMat=1 NMatS=1 NMatT=0.
 FoFCou: FMM=F IPFlag=           0 FMFlag=      100000 FMFlg1=         800
         NFxFlg=           0 DoJE=F BraDBF=F KetDBF=F FulRan=T
         Omega=  0.000000  0.000000  1.000000  0.000000  0.000000 ICntrl=  100127 IOpCl=  0
         NMat0=    1 NMatS0=    1 NMatT0=    0 NMatD0=    1 NMtDS0=    0 NMtDT0=    0
         I1Cent=           0 NGrid=           0.
 Petite list used in FoFCou.
 Leave Link  703 at Fri Apr 25 16:17:24 2014, MaxMem=   65536000 cpu:      11.1
 (Enter /apps/gaussian/g09/l716.exe)
 Dipole        = 7.05261522D-01-2.97125723D-01-4.36778080D-30
 Polarizability= 1.27322919D+01-5.09732411D+00 3.63457409D+01
                 8.68451603D-10-1.51004029D-10 9.43273488D+00
 Full mass-weighted force constant matrix:
 Low frequencies ---  -65.4646   -0.0011   -0.0008   -0.0007   11.1418   13.2893
 Low frequencies ---  548.3370  624.2106 1166.3912
 Diagonal vibrational polarizability:
        0.3670874       7.2847435       0.0135081
 Harmonic frequencies (cm**-1), IR intensities (KM/Mole), Raman scattering
 activities (A**4/AMU), depolarization ratios for plane and unpolarized
 incident light, reduced masses (AMU), force constants (mDyne/A),
 and normal coordinates:
                     1                      2                      3
                    A'                     A"                     A'
 Frequencies --   548.3368               624.2049              1166.3912
 Red. masses --     4.9553                 7.3454                 1.5589
 Frc consts  --     0.8778                 1.6862                 1.2496
 IR Inten    --    17.7065                 0.1956               208.0237
  Atom  AN      X      Y      Z        X      Y      Z        X      Y      Z
     1   7     0.45   0.08  -0.00     0.00   0.00   0.58     0.09   0.05  -0.00
     2   7    -0.26  -0.06   0.00    -0.00  -0.00  -0.31    -0.02   0.03   0.00
     3   7    -0.16   0.03   0.00    -0.00   0.00  -0.22    -0.09  -0.15   0.00
     4   1    -0.40  -0.73   0.00    -0.00  -0.00  -0.72     0.29   0.93   0.00
                     4                      5                      6
                    A'                     A'                     A'
 Frequencies --  1318.8560              2324.1745              3497.7805
 Red. masses --     4.3599                12.3312                 1.0748
 Frc consts  --     4.4680                39.2458                 7.7472
 IR Inten    --     5.6083               352.7565                49.0966
  Atom  AN      X      Y      Z        X      Y      Z        X      Y      Z
     1   7     0.05  -0.11   0.00    -0.15   0.73   0.00     0.00   0.00   0.00
     2   7     0.05  -0.32  -0.00     0.11  -0.53  -0.00    -0.00   0.00  -0.00
     3   7    -0.10   0.36  -0.00     0.04  -0.17  -0.00     0.07  -0.03  -0.00
     4   1     0.04   0.86  -0.00    -0.03  -0.36  -0.00    -0.95   0.32  -0.00

 -------------------
 - Thermochemistry -
 -------------------
 Temperature   298.150 Kelvin.  Pressure   1.00000 Atm.
 Atom     1 has atomic number  7 and mass  14.00307
 Atom     2 has atomic number  7 and mass  14.00307
 Atom     3 has atomic number  7 and mass  14.00307
 Atom     4 has atomic number  1 and mass   1.00783
 Molecular mass:    43.01705 amu.
 Principal axes and moments of inertia in atomic units:
                           1         2         3
     Eigenvalues --     2.93190 147.73985 150.67175
           X           -0.16091   0.98697   0.00000
           Y            0.98697   0.16091   0.00000
           Z            0.00000   0.00000   1.00000
 This molecule is an asymmetric top.
 Rotational symmetry number  1.
 Rotational temperatures (Kelvin)     29.54188     0.58626     0.57485
 Rotational constants (GHZ):         615.55362    12.21567    11.97797
 Zero-point vibrational energy      56701.5 (Joules/Mol)
                                   13.55197 (Kcal/Mol)
 Warning -- explicit consideration of   1 degrees of freedom as
           vibrations may cause significant error
 Vibrational temperatures:    788.93   898.09  1678.17  1897.54  3343.96
          (Kelvin)           5032.52
 
 Zero-point correction=                           0.021596 (Hartree/Particle)
 Thermal correction to Energy=                    0.024797
 Thermal correction to Enthalpy=                  0.025741
 Thermal correction to Gibbs Free Energy=        -0.001367
 Sum of electronic and zero-point Energies=           -164.710271
 Sum of electronic and thermal Energies=              -164.707071
 Sum of electronic and thermal Enthalpies=            -164.706127
 Sum of electronic and thermal Free Energies=         -164.733234
 
                     E (Thermal)             CV                S
                      KCal/Mol        Cal/Mol-Kelvin    Cal/Mol-Kelvin
 Total                   15.560              8.456             57.052
 Electronic               0.000              0.000              0.000
 Translational            0.889              2.981             37.204
 Rotational               0.889              2.981             18.818
 Vibrational             13.783              2.495              1.031
 Vibration     1          0.904              1.143              0.548
                       Q            Log10(Q)             Ln(Q)
 Total Bot       0.425225D+01          0.628619          1.447448
 Total V=0       0.364983D+11         10.562273         24.320532
 Vib (Bot)       0.132592D-09         -9.877483        -22.743745
 Vib (Bot)    1  0.286654D+00         -0.542642         -1.249479
 Vib (V=0)       0.113808D+01          0.056171          0.129339
 Vib (V=0)    1  0.107634D+01          0.031950          0.073569
 Electronic      0.100000D+01          0.000000          0.000000
 Translational   0.110896D+08          7.044916         16.221519
 Rotational      0.289192D+04          3.461186          7.969675
 
                                                               reactif1
                                                             IR Spectrum
 
     3                                          2                                    1    1                                          
     4                                          3                                    3    1                   6  5                   
     9                                          2                                    1    6                   2  4                   
     8                                          4                                    9    6                   4  8                   
 
     X                                          X                                    X    X                   X  X                   
     X                                          X                                         X                                          
     X                                          X                                         X                                          
                                                X                                         X                                          
                                                X                                         X                                          
                                                X                                         X                                          
                                                X                                         X                                          
                                                X                                         X                                          
                                                X                                         X                                          
                                                X                                         X                                          
                                                X                                         X                                          
                                                X                                         X                                          
                                                X                                                                                    
                                                X                                                                                    
                                                X                                                                                    
                                                X                                                                                    
                                                X                                                                                    
                                                X                                                                                    
                                                X                                                                                    
                                                X                                                                                    
 
 ***** Axes restored to original set *****
 -------------------------------------------------------------------
 Center     Atomic                   Forces (Hartrees/Bohr)
 Number     Number              X              Y              Z
 -------------------------------------------------------------------
      1        7           0.000026363   -0.000000000    0.000039291
      2        7          -0.000013022    0.000000000   -0.000090780
      3        7          -0.000011708    0.000000000    0.000070838
      4        1          -0.000001633    0.000000000   -0.000019349
 -------------------------------------------------------------------
 Cartesian Forces:  Max     0.000090780 RMS     0.000036721
 Force constants in Cartesian coordinates: 
                1             2             3             4             5 
      1  0.199586D+00
      2  0.000000D+00  0.134490D+00
      3 -0.262122D+00  0.000000D+00  0.178811D+01
      4 -0.894617D-01  0.000000D+00  0.157517D+00  0.662868D-01
      5  0.000000D+00 -0.723176D-01  0.000000D+00  0.000000D+00  0.389195D-01
      6  0.170473D+00  0.000000D+00 -0.115828D+01 -0.196677D+00  0.000000D+00
      7 -0.113555D+00  0.000000D+00  0.741558D-01  0.251235D-01  0.000000D+00
      8  0.000000D+00 -0.504173D-01  0.000000D+00  0.000000D+00  0.270928D-01
      9  0.122710D+00  0.000000D+00 -0.562920D+00  0.369234D-01  0.000000D+00
     10  0.343094D-02  0.000000D+00  0.304488D-01 -0.194854D-02  0.000000D+00
     11  0.000000D+00 -0.117550D-01  0.000000D+00  0.000000D+00  0.630528D-02
     12 -0.310616D-01  0.000000D+00 -0.669100D-01  0.223703D-02  0.000000D+00
                6             7             8             9            10 
      6  0.122681D+01
      7  0.187222D-01  0.366446D+00
      8  0.000000D+00  0.000000D+00  0.187469D-01
      9 -0.807999D-01  0.702208D-01  0.000000D+00  0.795163D+00
     10  0.748215D-02 -0.278015D+00  0.000000D+00 -0.229854D+00  0.276532D+00
     11  0.000000D+00  0.000000D+00  0.457756D-02  0.000000D+00  0.000000D+00
     12  0.122693D-01 -0.163099D+00  0.000000D+00 -0.151442D+00  0.191923D+00
               11            12 
     11  0.872152D-03
     12  0.000000D+00  0.206083D+00
 Force constants in internal coordinates: 
                1             2             3             4             5 
      1  0.125917D+01
      2  0.770344D-01  0.718948D+00
      3 -0.131095D-01 -0.197827D-02  0.435588D+00
      4  0.112926D-01  0.395727D-01  0.429925D-02  0.153534D+00
      5 -0.940635D-02  0.108812D+00  0.336304D-01  0.152249D-01  0.174474D+00
      6  0.000000D+00  0.000000D+00  0.000000D+00  0.000000D+00  0.000000D+00
                6 
      6  0.342165D-02
 Leave Link  716 at Fri Apr 25 16:17:24 2014, MaxMem=   65536000 cpu:       0.2
 (Enter /apps/gaussian/g09/l103.exe)

 GradGradGradGradGradGradGradGradGradGradGradGradGradGradGradGradGradGrad
 Berny optimization.
 Internal  Forces:  Max     0.000088841 RMS     0.000045695
 Search for a local minimum.
 Step number   1 out of a maximum of    2
 All quantities printed in internal units (Hartrees-Bohrs-Radians)
 Second derivative matrix not updated -- analytic derivatives used.
 The second derivative matrix:
                          R1        R2        R3        A1        A2
           R1           1.25917
           R2           0.07703   0.71895
           R3          -0.01311  -0.00198   0.43559
           A1           0.01129   0.03957   0.00430   0.15353
           A2          -0.00941   0.10881   0.03363   0.01522   0.17447
           D1           0.00000   0.00000   0.00000   0.00000  -0.00000
                          D1
           D1           0.00342
     Eigenvalues ---    0.00342   0.14273   0.15692   0.43914   0.73249
     Eigenvalues ---    1.27042
 Angle between quadratic step and forces=  48.53 degrees.
 Linear search not attempted -- first point.
 Iteration  1 RMS(Cart)=  0.00009239 RMS(Int)=  0.00000001
 Iteration  2 RMS(Cart)=  0.00000001 RMS(Int)=  0.00000000
 ClnCor:  largest displacement from symmetrization is 3.46D-14 for atom     1.
 Variable       Old X    -DE/DX   Delta X   Delta X   Delta X     New X
                                 (Linear)    (Quad)   (Total)
    R1        2.13283  -0.00009   0.00000  -0.00007  -0.00007   2.13276
    R2        2.32404  -0.00006   0.00000  -0.00010  -0.00010   2.32394
    R3        1.92788   0.00002   0.00000   0.00004   0.00004   1.92792
    A1        3.00180   0.00003   0.00000   0.00020   0.00020   3.00200
    A2        1.92216   0.00001   0.00000   0.00008   0.00008   1.92224
    D1        3.14159   0.00000   0.00000  -0.00000   0.00000   3.14159
         Item               Value     Threshold  Converged?
 Maximum Force            0.000089     0.000450     YES
 RMS     Force            0.000046     0.000300     YES
 Maximum Displacement     0.000166     0.001800     YES
 RMS     Displacement     0.000092     0.001200     YES
 Predicted change in Energy=-9.194756D-09
 Optimization completed.
    -- Stationary point found.
                           ----------------------------
                           !   Optimized Parameters   !
                           ! (Angstroms and Degrees)  !
 --------------------------                            --------------------------
 ! Name  Definition              Value          Derivative Info.                !
 --------------------------------------------------------------------------------
 ! R1    R(1,2)                  1.1286         -DE/DX =   -0.0001              !
 ! R2    R(1,3)                  1.2298         -DE/DX =   -0.0001              !
 ! R3    R(3,4)                  1.0202         -DE/DX =    0.0                 !
 ! A1    A(2,1,3)              171.9906         -DE/DX =    0.0                 !
 ! A2    A(1,3,4)              110.1317         -DE/DX =    0.0                 !
 ! D1    D(2,1,3,4)            180.0            -DE/DX =    0.0                 !
 --------------------------------------------------------------------------------
 GradGradGradGradGradGradGradGradGradGradGradGradGradGradGradGradGradGrad

 Leave Link  103 at Fri Apr 25 16:17:24 2014, MaxMem=   65536000 cpu:       0.0
 (Enter /apps/gaussian/g09/l9999.exe)

 Test job not archived.
 1\1\GINC-ROMEO164\Freq\RM06\6-311G(d,p)\H1N3\ROOT\25-Apr-2014\0\\#P Ge
 om=AllCheck Guess=TCheck SCRF=Check Test GenChk RM06/6-311G(d,p) Freq\
 \reactif1\\0,1\N,0.1147052949,0.,-0.0084941135\N,-0.0638462871,0.,1.10
 59381127\N,0.4765677375,0.,-1.1838817501\H,-0.3355767453,0.,-1.8013072
 491\\Version=AM64L-G09RevA.02\State=1-A'\HF=-164.7318673\RMSD=1.183e-0
 9\RMSF=3.672e-05\ZeroPoint=0.0215964\Thermal=0.0247965\Dipole=-0.55590
 84,0.,-0.5259689\DipoleDeriv=0.1542178,0.,-0.3977829,0.,0.2481218,0.,-
 0.4338679,0.,1.9182444,-0.1562056,0.,0.0893301,0.,-0.1534465,0.,0.2240
 997,0.,-0.8860878,-0.1274372,0.,0.3926658,0.,-0.4477921,0.,0.1925317,0
 .,-1.3882278,0.1294249,0.,-0.084213,0.,0.3531168,0.,0.0172366,0.,0.356
 0713\Polar=12.2936759,0.,9.4327349,-3.9284975,0.,36.7843569\PG=CS [SG(
 H1N3)]\NImag=0\\0.19958609,0.,0.13448990,-0.26212155,0.,1.78810785,-0.
 08946171,0.,0.15751698,0.06628677,0.,-0.07231759,0.,0.,0.03891949,0.17
 047302,0.,-1.15827737,-0.19667740,0.,1.22680805,-0.11355532,0.,0.07415
 577,0.02512348,0.,0.01872223,0.36644635,0.,-0.05041732,0.,0.,0.0270928
 3,0.,0.,0.01874693,0.12271016,0.,-0.56292046,0.03692339,0.,-0.08079993
 ,0.07022078,0.,0.79516252,0.00343094,0.,0.03044880,-0.00194854,0.,0.00
 748215,-0.27801451,0.,-0.22985433,0.27653212,0.,-0.01175499,0.,0.,0.00
 630528,0.,0.,0.00457756,0.,0.,0.00087215,-0.03106163,0.,-0.06691002,0.
 00223703,0.,0.01226925,-0.16309878,0.,-0.15144214,0.19192338,0.,0.2060
 8290\\-0.00002636,0.,-0.00003929,0.00001302,0.,0.00009078,0.00001171,0
 .,-0.00007084,0.00000163,0.,0.00001935\\\@


 A HARD FALL SHOULD MEAN A HIGH BOUNCE 
 IF ONE IS MADE OF THE RIGHT MATERIAL.

                -- THE CHEMIST ANALYST, MARCH 1950
 Job cpu time:  0 days  0 hours  0 minutes 50.2 seconds.
 File lengths (MBytes):  RWF=      5 Int=      0 D2E=      0 Chk=      1 Scr=      1
 Normal termination of Gaussian 09 at Fri Apr 25 16:17:24 2014.
************
total 496
drwxrwxr-x 2 henon henon   4096 25 avril 16:17 .
drwxrwxr-x 3 henon henon   4096 25 avril 16:17 ..
-rw-r--r-- 1 henon henon    307 25 avril 16:17 hn3.inp
-rw-rw-r-- 1 henon henon 492946 25 avril 16:17 hn3.out
Run on 12 cores
romeo164
************
