
                                 *****************
                                 * O   R   C   A *
                                 *****************

           --- An Ab Initio, DFT and Semiempirical electronic structure package ---

                  #######################################################
                  #                        -***-                        #
                  #  Department of molecular theory and spectroscopy    #
                  #              Directorship: Frank Neese              #
                  # Max Planck Institute for Chemical Energy Conversion #
                  #                  D-45470 Muelheim/Ruhr              #
                  #                       Germany                       #
                  #                                                     #
                  #                  All rights reserved                #
                  #                        -***-                        #
                  #######################################################


                         Program Version 4.0.1.2 - RELEASE -


 With contributions from (in alphabetic order):
   Daniel Aravena         : Magnetic Properties
   Michael Atanasov       : Ab Initio Ligand Field Theory
   Ute Becker             : Parallelization
   Martin Brehm           : Molecular dynamics
   Dmytro Bykov           : SCF Hessian
   Vijay G. Chilkuri      : MRCI spin determinant printing
   Dipayan Datta          : RHF DLPNO-CCSD density
   Achintya Kumar Dutta   : EOM-CC, STEOM-CC
   Dmitry Ganyushin       : Spin-Orbit,Spin-Spin,Magnetic field MRCI
   Yang Guo               : DLPNO-NEVPT2, CIM, IAO-localization
   Andreas Hansen         : Spin unrestricted coupled pair/coupled cluster methods
   Lee Huntington         : MR-EOM, pCC
   Robert Izsak           : Overlap fitted RIJCOSX, COSX-SCS-MP3, EOM
   Christian Kollmar      : KDIIS, OOCD, Brueckner-CCSD(T), CCSD density
   Simone Kossmann        : Meta GGA functionals, TD-DFT gradient, OOMP2, MP2 Hessian
   Martin Krupicka        : AUTO-CI
   Dagmar Lenk            : GEPOL surface
   Dimitrios Liakos       : Extrapolation schemes; parallel MDCI
   Dimitrios Manganas     : ROCIS; embedding schemes
   Dimitrios Pantazis     : SARC Basis sets
   Taras Petrenko         : DFT Hessian,TD-DFT gradient, ASA, ECA, R-Raman, ABS, FL, XAS/XES, NRVS
   Peter Pinski           : DLPNO-MP2
   Christoph Reimann      : Effective Core Potentials
   Marius Retegan         : Local ZFS, SOC
   Christoph Riplinger    : Optimizer, TS searches, QM/MM, DLPNO-CCSD(T), (RO)-DLPNO pert. Triples
   Tobias Risthaus        : Range-separated hybrids, TD-DFT gradient, RPA, STAB
   Michael Roemelt        : Restricted open shell CIS
   Masaaki Saitow         : Open-shell DLPNO
   Barbara Sandhoefer     : DKH picture change effects
   Kantharuban Sivalingam : CASSCF convergence, NEVPT2, FIC-MRCI
   Georgi Stoychev        : AutoAux
   Boris Wezisla          : Elementary symmetry handling
   Frank Wennmohs         : Technical directorship


 We gratefully acknowledge several colleagues who have allowed us to
 interface, adapt or use parts of their codes:
   Stefan Grimme, W. Hujo, H. Kruse,             : VdW corrections, initial TS optimization,
                  C. Bannwarth                     DFT functionals, gCP, sTDA/sTD-DF
   Ed Valeev                                     : LibInt (2-el integral package), F12 methods
   Garnet Chan, S. Sharma, J. Yang, R. Olivares  : DMRG
   Ulf Ekstrom                                   : XCFun DFT Library
   Mihaly Kallay                                 : mrcc  (arbitrary order and MRCC methods)
   Andreas Klamt, Michael Diedenhofen            : otool_cosmo (COSMO solvation model)
   Jiri Pittner, Ondrej Demel                    : Mk-CCSD
   Frank Weinhold                                : gennbo (NPA and NBO analysis)
   Christopher J. Cramer and Donald G. Truhlar   : smd solvation model


 Your calculation uses the libint2 library for the computation of 2-el integrals
 For citations please refer to: http://libint.valeyev.net

 This ORCA versions uses:
   CBLAS   interface :  Fast vector & matrix operations
   LAPACKE interface :  Fast linear algebra routines
   SCALAPACK package :  Parallel linear algebra routines


Your calculation utilizes the basis: def2-TZVP
   F. Weigend and R. Ahlrichs, Phys. Chem. Chem. Phys. 7, 3297 (2005).

Your calculation utilizes the auxiliary basis: def2/J
   F. Weigend, Phys. Chem. Chem. Phys. 8, 1057 (2006).

================================================================================
                                        WARNINGS
                       Please study these warnings very carefully!
================================================================================

Warning: TCutStore was < 0. Adjusted to Thresh (uncritical)

INFO   : the flag for use of LIBINT has been found!

================================================================================
                                       INPUT FILE
================================================================================
NAME = testLin.inp
|  1> ! RKS BP def2-TZVP RI def2/J
|  2> ! TightSCF Grid5 NoFinalGrid
|  3> ! Freq 
|  4> * xyz 0 1
|  5> C      0.000000    0.000000   -0.518698
|  6> N      0.000000    0.000000    0.674157
|  7> H      0.000000    0.000000   -1.606907
|  8> *
|  9> 
| 10>                          ****END OF INPUT****
================================================================================

                       ****************************
                       * Single Point Calculation *
                       ****************************

---------------------------------
CARTESIAN COORDINATES (ANGSTROEM)
---------------------------------
  C      0.000000    0.000000   -0.518698
  N      0.000000    0.000000    0.674157
  H      0.000000    0.000000   -1.606907

----------------------------
CARTESIAN COORDINATES (A.U.)
----------------------------
  NO LB      ZA    FRAG     MASS         X           Y           Z
   0 C     6.0000    0    12.011    0.000000    0.000000   -0.980197
   1 N     7.0000    0    14.007    0.000000    0.000000    1.273972
   2 H     1.0000    0     1.008    0.000000    0.000000   -3.036614

--------------------------------
INTERNAL COORDINATES (ANGSTROEM)
--------------------------------
 C      0   0   0     0.000000000000     0.00000000     0.00000000
 N      1   0   0     1.192855000000     0.00000000     0.00000000
 H      1   2   0     1.088209000000   179.99999879     0.00000000

---------------------------
INTERNAL COORDINATES (A.U.)
---------------------------
 C      0   0   0     0.000000000000     0.00000000     0.00000000
 N      1   0   0     2.254169267479     0.00000000     0.00000000
 H      1   2   0     2.056416986468   179.99999879     0.00000000

---------------------
BASIS SET INFORMATION
---------------------
There are 3 groups of distinct atoms

 Group   1 Type C   : 11s6p2d1f contracted to 5s3p2d1f pattern {62111/411/11/1}
 Group   2 Type N   : 11s6p2d1f contracted to 5s3p2d1f pattern {62111/411/11/1}
 Group   3 Type H   : 5s1p contracted to 3s1p pattern {311/1}

Atom   0C    basis set group =>   1
Atom   1N    basis set group =>   2
Atom   2H    basis set group =>   3
-------------------------------
AUXILIARY BASIS SET INFORMATION
-------------------------------
There are 3 groups of distinct atoms

 Group   1 Type C   : 12s5p4d2f1g contracted to 6s4p3d1f1g pattern {711111/2111/211/2/1}
 Group   2 Type N   : 12s5p4d2f1g contracted to 6s4p3d1f1g pattern {711111/2111/211/2/1}
 Group   3 Type H   : 5s2p1d contracted to 3s1p1d pattern {311/2/1}

Atom   0C    basis set group =>   1
Atom   1N    basis set group =>   2
Atom   2H    basis set group =>   3
------------------------------------------------------------------------------
                           ORCA GTO INTEGRAL CALCULATION
                           -- RI-GTO INTEGRALS CHOSEN --
------------------------------------------------------------------------------

                         BASIS SET STATISTICS AND STARTUP INFO

Gaussian basis set:
 # of primitive gaussian shells          ...   46
 # of primitive gaussian functions       ...  100
 # of contracted shells                  ...   26
 # of contracted basis functions         ...   68
 Highest angular momentum                ...    3
 Maximum contraction depth               ...    6
Auxiliary gaussian basis set:
 # of primitive gaussian shells          ...   56
 # of primitive gaussian functions       ...  156
 # of contracted shells                  ...   35
 # of contracted aux-basis functions     ...  109
 Highest angular momentum                ...    4
 Maximum contraction depth               ...    7
Ratio of auxiliary to basis functions    ...  1.60
Integral package used                  ... LIBINT
 One Electron integrals                  ... done
 Ordering auxiliary basis shells         ... done
 Integral threshhold             Thresh  ...  2.500e-11
 Primitive cut-off               TCut    ...  2.500e-12
 Pre-screening matrix                    ... done
 Shell pair data                         ... 
 Ordering of the shell pairs             ... done (   0.000 sec) 350 of 351 pairs
 Determination of significant pairs      ... done (   0.000 sec)
 Creation of shell pair data             ... done (   0.000 sec)
 Storage of shell pair data              ... done (   0.001 sec)
 Shell pair data done in (   0.001 sec)
 Computing two index integrals           ... done
 Cholesky decomposition of the V-matrix  ... done


Timings:
 Total evaluation time                   ...   0.139 sec (  0.002 min)
 One electron matrix time                ...   0.005 sec (  0.000 min) =  3.9%
 Schwartz matrix evaluation time         ...   0.116 sec (  0.002 min) = 84.0%
 Two index repulsion integral time       ...   0.001 sec (  0.000 min) =  0.6%
 Cholesky decomposition of V             ...   0.001 sec (  0.000 min) =  0.5%
 Three index repulsion integral time     ...   0.000 sec (  0.000 min) =  0.0%

-------------------------------------------------------------------------------
                                 ORCA SCF
-------------------------------------------------------------------------------

------------
SCF SETTINGS
------------
Hamiltonian:
 Density Functional     Method          .... DFT(GTOs)
 Exchange Functional    Exchange        .... B88
   X-Alpha parameter    XAlpha          ....  0.666667
   Becke's b parameter  XBeta           ....  0.004200
 Correlation Functional Correlation     .... P86
 LDA part of GGA corr.  LDAOpt          .... PW91-LDA
 Gradients option       PostSCFGGA      .... off
 RI-approximation to the Coulomb term is turned on
   Number of auxiliary basis functions  .... 109


General Settings:
 Integral files         IntName         .... testLin
 Hartree-Fock type      HFTyp           .... RHF
 Total Charge           Charge          ....    0
 Multiplicity           Mult            ....    1
 Number of Electrons    NEL             ....   14
 Basis Dimension        Dim             ....   68
 Nuclear Repulsion      ENuc            ....     23.1737463946 Eh

Convergence Acceleration:
 DIIS                   CNVDIIS         .... on
   Start iteration      DIISMaxIt       ....    12
   Startup error        DIISStart       ....  0.200000
   # of expansion vecs  DIISMaxEq       ....     5
   Bias factor          DIISBfac        ....   1.050
   Max. coefficient     DIISMaxC        ....  10.000
 Newton-Raphson         CNVNR           .... off
 SOSCF                  CNVSOSCF        .... on
   Start iteration      SOSCFMaxIt      ....   150
   Startup grad/error   SOSCFStart      ....  0.003300
 Level Shifting         CNVShift        .... on
   Level shift para.    LevelShift      ....    0.2500
   Turn off err/grad.   ShiftErr        ....    0.0010
 Zerner damping         CNVZerner       .... off
 Static damping         CNVDamp         .... on
   Fraction old density DampFac         ....    0.7000
   Max. Damping (<1)    DampMax         ....    0.9800
   Min. Damping (>=0)   DampMin         ....    0.0000
   Turn off err/grad.   DampErr         ....    0.1000
 Fernandez-Rico         CNVRico         .... off

SCF Procedure:
 Maximum # iterations   MaxIter         ....   125
 SCF integral mode      SCFMode         .... Direct
   Integral package                     .... LIBINT
 Reset frequeny         DirectResetFreq ....    20
 Integral Threshold     Thresh          ....  2.500e-11 Eh
 Primitive CutOff       TCut            ....  2.500e-12 Eh

Convergence Tolerance:
 Convergence Check Mode ConvCheckMode   .... Total+1el-Energy
 Convergence forced     ConvForced      .... 0
 Energy Change          TolE            ....  1.000e-08 Eh
 1-El. energy change                    ....  1.000e-05 Eh
 Orbital Gradient       TolG            ....  1.000e-05
 Orbital Rotation angle TolX            ....  1.000e-05
 DIIS Error             TolErr          ....  5.000e-07


Diagonalization of the overlap matrix:
Smallest eigenvalue                        ... 5.143e-04
Time for diagonalization                   ...    0.002 sec
Threshold for overlap eigenvalues          ... 1.000e-08
Number of eigenvalues below threshold      ... 0
Time for construction of square roots      ...    0.001 sec
Total time needed                          ...    0.003 sec

-------------------
DFT GRID GENERATION
-------------------

General Integration Accuracy     IntAcc      ...  5.010
Radial Grid Type                 RadialGrid  ... Gauss-Chebyshev
Angular Grid (max. acc.)         AngularGrid ... Lebedev-434
Angular grid pruning method      GridPruning ... 3 (G Style)
Weight generation scheme         WeightScheme... Becke
Basis function cutoff            BFCut       ...    1.0000e-11
Integration weight cutoff        WCut        ...    1.0000e-14
Grids for H and He will be reduced by one unit

# of grid points (after initial pruning)     ...  27980 (   0.0 sec)
# of grid points (after weights+screening)   ...  27670 (   0.0 sec)
nearest neighbour list constructed           ...    0.0 sec
Grid point re-assignment to atoms done       ...    0.0 sec
Grid point division into batches done        ...    0.2 sec
Reduced shell lists constructed in    0.3 sec

Total number of grid points                  ...    27670
Total number of batches                      ...      434
Average number of points per batch           ...       63
Average number of grid points per atom       ...     9223
Average number of shells per batch           ...    19.76 (76.01%)
Average number of basis functions per batch  ...    53.75 (79.05%)
Average number of large shells per batch     ...    17.82 (90.17%)
Average number of large basis fcns per batch ...    48.65 (90.50%)
Maximum spatial batch extension              ...  27.58, 27.58, 16.25 au
Average spatial batch extension              ...   3.40,  3.36,  2.63 au

Time for grid setup =    0.308 sec

------------------------------
INITIAL GUESS: MODEL POTENTIAL
------------------------------
Loading Hartree-Fock densities                     ... done
Calculating cut-offs                               ... done
Setting up the integral package                    ... done
Initializing the effective Hamiltonian             ... done
Starting the Coulomb interaction                   ... done (   0.0 sec)
Reading the grid                                   ... done
Mapping shells                                     ... done
Starting the XC term evaluation                    ... done (   0.2 sec)
  promolecular density results
     # of electrons  =     13.999509560
     EX              =    -11.892464317
     EC              =     -0.475834084
     EX+EC           =    -12.368298401
Transforming the Hamiltonian                       ... done (   0.0 sec)
Diagonalizing the Hamiltonian                      ... done (   0.0 sec)
Back transforming the eigenvectors                 ... done (   0.0 sec)
Now organizing SCF variables                       ... done
                      ------------------
                      INITIAL GUESS DONE (   0.6 sec)
                      ------------------
--------------
SCF ITERATIONS
--------------
ITER       Energy         Delta-E        Max-DP      RMS-DP      [F,P]     Damp
               ***  Starting incremental Fock matrix formation  ***
  0    -93.3750610235   0.000000000000 0.04830539  0.00270944  0.2820421 0.7000
  1    -93.4230161531  -0.047955129590 0.02386634  0.00149277  0.0598442 0.7000
                               ***Turning on DIIS***
  2    -93.4296251815  -0.006609028403 0.04555805  0.00192550  0.0541930 0.0000
  3    -93.4570953243  -0.027470142819 0.02147635  0.00114879  0.0383599 0.0000
  4    -93.4590292849  -0.001933960610 0.00952224  0.00043311  0.0298723 0.0000
  5    -93.4599077567  -0.000878471838 0.00269995  0.00012355  0.0089256 0.0000
                      *** Initiating the SOSCF procedure ***
                           *** Shutting down DIIS ***
                      *** Re-Reading the Fockian *** 
                      *** Removing any level shift *** 
ITER      Energy       Delta-E        Grad      Rot      Max-DP    RMS-DP
  6    -93.45999414  -0.0000863809  0.000422  0.000422  0.000488  0.000029
               *** Restarting incremental Fock matrix formation ***
  7    -93.46000215  -0.0000080173  0.000424  0.001532  0.000865  0.000044
  8    -93.45999362   0.0000085307  0.001500  0.001108  0.000672  0.000034
  9    -93.46000289  -0.0000092699  0.000058  0.000102  0.000106  0.000005
 10    -93.46000290  -0.0000000020  0.000054  0.000047  0.000048  0.000003
 11    -93.46000292  -0.0000000216  0.000004  0.000003  0.000008  0.000000
                  ***Gradient check signals convergence***
              ***Rediagonalizing the Fockian in SOSCF/NRSCF***

               *****************************************************
               *                     SUCCESS                       *
               *           SCF CONVERGED AFTER  12 CYCLES          *
               *****************************************************


----------------
TOTAL SCF ENERGY
----------------

Total Energy       :          -93.46000292 Eh           -2543.17597 eV

Components:
Nuclear Repulsion  :           23.17374639 Eh             630.58970 eV
Electronic Energy  :         -116.63374931 Eh           -3173.76567 eV
One Electron Energy:         -171.46364012 Eh           -4665.76285 eV
Two Electron Energy:           54.82989080 Eh            1491.99718 eV

Virial components:
Potential Energy   :         -186.35637958 Eh           -5071.01489 eV
Kinetic Energy     :           92.89637667 Eh            2527.83892 eV
Virial Ratio       :            2.00606726


DFT components:
N(Alpha)           :        6.999999411461 electrons
N(Beta)            :        6.999999411461 electrons
N(Total)           :       13.999998822922 electrons
E(X)               :      -12.081662837830 Eh       
E(C)               :       -0.482662760841 Eh       
E(XC)              :      -12.564325598671 Eh       

---------------
SCF CONVERGENCE
---------------

  Last Energy change         ...   -1.6026e-10  Tolerance :   1.0000e-08
  Last MAX-Density change    ...    2.6235e-06  Tolerance :   1.0000e-07
  Last RMS-Density change    ...    1.2744e-07  Tolerance :   5.0000e-09
  Last Orbital Gradient      ...    1.7999e-06  Tolerance :   1.0000e-05
  Last Orbital Rotation      ...    1.2520e-06  Tolerance :   1.0000e-05

             **** THE GBW FILE WAS UPDATED (testLin.gbw) ****
             **** DENSITY FILE WAS UPDATED (testLin.scfp.tmp) ****
             **** ENERGY FILE WAS UPDATED (testLin.en.tmp) ****
----------------
ORBITAL ENERGIES
----------------

  NO   OCC          E(Eh)            E(eV) 
   0   2.0000     -14.035156      -381.9160 
   1   2.0000      -9.964064      -271.1360 
   2   2.0000      -0.835986       -22.7483 
   3   2.0000      -0.557896       -15.1811 
   4   2.0000      -0.342479        -9.3193 
   5   2.0000      -0.326542        -8.8856 
   6   2.0000      -0.326542        -8.8856 
   7   0.0000      -0.049693        -1.3522 
   8   0.0000      -0.049693        -1.3522 
   9   0.0000       0.016618         0.4522 
  10   0.0000       0.080252         2.1838 
  11   0.0000       0.196200         5.3389 
  12   0.0000       0.196200         5.3389 
  13   0.0000       0.251324         6.8389 
  14   0.0000       0.314594         8.5605 
  15   0.0000       0.355003         9.6601 
  16   0.0000       0.393904        10.7187 
  17   0.0000       0.393904        10.7187 
  18   0.0000       0.583357        15.8739 
  19   0.0000       0.583357        15.8739 
  20   0.0000       0.595958        16.2168 
  21   0.0000       0.674320        18.3492 
  22   0.0000       0.707141        19.2423 
  23   0.0000       0.707141        19.2423 
  24   0.0000       1.110706        30.2239 
  25   0.0000       1.110706        30.2239 
  26   0.0000       1.152917        31.3725 
  27   0.0000       1.279891        34.8276 
  28   0.0000       1.319679        35.9103 
  29   0.0000       1.319679        35.9103 
  30   0.0000       1.401892        38.1474 
  31   0.0000       1.402238        38.1568 
  32   0.0000       1.402238        38.1568 
  33   0.0000       1.700328        46.2683 
  34   0.0000       1.873625        50.9839 
  35   0.0000       1.873625        50.9839 
  36   0.0000       2.128360        57.9156 
  37   0.0000       2.271293        61.8050 
  38   0.0000       2.271293        61.8050 
  39   0.0000       2.304226        62.7012 
  40   0.0000       2.561135        69.6920 
  41   0.0000       2.561135        69.6920 
  42   0.0000       2.625411        71.4411 
  43   0.0000       2.625411        71.4411 
  44   0.0000       2.688946        73.1699 
  45   0.0000       2.775963        75.5378 
  46   0.0000       2.775963        75.5378 
  47   0.0000       2.860823        77.8469 
  48   0.0000       2.860823        77.8469 
  49   0.0000       3.141103        85.4737 
  50   0.0000       3.342381        90.9508 
  51   0.0000       3.342381        90.9508 
  52   0.0000       3.608614        98.1954 
  53   0.0000       3.843445       104.5855 
  54   0.0000       3.843445       104.5855 
  55   0.0000       4.278751       116.4307 
  56   0.0000       4.278751       116.4307 
  57   0.0000       4.438372       120.7743 
  58   0.0000       4.455577       121.2424 
  59   0.0000       4.455577       121.2424 
  60   0.0000       4.815106       131.0257 
  61   0.0000       4.815106       131.0257 
  62   0.0000       5.211467       141.8112 
  63   0.0000       5.297816       144.1609 
  64   0.0000       5.297816       144.1609 
  65   0.0000       5.771156       157.0411 
  66   0.0000      21.890823       595.6796 
  67   0.0000      31.600648       859.8974 

                    ********************************
                    * MULLIKEN POPULATION ANALYSIS *
                    ********************************

-----------------------
MULLIKEN ATOMIC CHARGES
-----------------------
   0 C :   -0.134058
   1 N :   -0.063134
   2 H :    0.197192
Sum of atomic charges:   -0.0000000

--------------------------------
MULLIKEN REDUCED ORBITAL CHARGES
--------------------------------
  0 C s       :     3.222132  s :     3.222132
      pz      :     1.015082  p :     2.870205
      px      :     0.927561
      py      :     0.927561
      dz2     :     0.008140  d :     0.029031
      dxz     :     0.010446
      dyz     :     0.010446
      dx2y2   :     0.000000
      dxy     :     0.000000
      f0      :     0.003958  f :     0.012689
      f+1     :     0.004366
      f-1     :     0.004366
      f+2     :     0.000000
      f-2     :     0.000000
      f+3     :     0.000000
      f-3     :     0.000000
  1 N s       :     3.748197  s :     3.748197
      pz      :     1.198730  p :     3.273248
      px      :     1.037259
      py      :     1.037259
      dz2     :     0.007603  d :     0.039761
      dxz     :     0.016079
      dyz     :     0.016079
      dx2y2   :     0.000000
      dxy     :     0.000000
      f0      :     0.000078  f :     0.001928
      f+1     :     0.000925
      f-1     :     0.000925
      f+2     :    -0.000000
      f-2     :    -0.000000
      f+3     :     0.000000
      f-3     :     0.000000
  2 H s       :     0.781685  s :     0.781685
      pz      :     0.014394  p :     0.021124
      px      :     0.003365
      py      :     0.003365


                     *******************************
                     * LOEWDIN POPULATION ANALYSIS *
                     *******************************

----------------------
LOEWDIN ATOMIC CHARGES
----------------------
   0 C :   -0.168465
   1 N :    0.038797
   2 H :    0.129667

-------------------------------
LOEWDIN REDUCED ORBITAL CHARGES
-------------------------------
  0 C s       :     2.972533  s :     2.972533
      pz      :     1.136133  p :     2.940777
      px      :     0.902322
      py      :     0.902322
      dz2     :     0.126916  d :     0.206011
      dxz     :     0.039547
      dyz     :     0.039547
      dx2y2   :     0.000000
      dxy     :     0.000000
      f0      :     0.022371  f :     0.049144
      f+1     :     0.013387
      f-1     :     0.013387
      f+2     :     0.000000
      f-2     :     0.000000
      f+3     :     0.000000
      f-3     :     0.000000
  1 N s       :     3.353349  s :     3.353349
      pz      :     1.485995  p :     3.490000
      px      :     1.002003
      py      :     1.002003
      dz2     :     0.048010  d :     0.104319
      dxz     :     0.028154
      dyz     :     0.028154
      dx2y2   :     0.000000
      dxy     :     0.000000
      f0      :     0.005968  f :     0.013534
      f+1     :     0.003783
      f-1     :     0.003783
      f+2     :     0.000000
      f-2     :     0.000000
      f+3     :     0.000000
      f-3     :     0.000000
  2 H s       :     0.803996  s :     0.803996
      pz      :     0.044728  p :     0.066336
      px      :     0.010804
      py      :     0.010804


                      *****************************
                      * MAYER POPULATION ANALYSIS *
                      *****************************

  NA   - Mulliken gross atomic population
  ZA   - Total nuclear charge
  QA   - Mulliken gross atomic charge
  VA   - Mayer's total valence
  BVA  - Mayer's bonded valence
  FA   - Mayer's free valence

  ATOM       NA         ZA         QA         VA         BVA        FA
  0 C      6.1341     6.0000    -0.1341     3.9455     3.9455    -0.0000
  1 N      7.0631     7.0000    -0.0631     3.0541     3.0541    -0.0000
  2 H      0.8028     1.0000     0.1972     0.9535     0.9535    -0.0000

  Mayer bond orders larger than 0.1
B(  0-C ,  1-N ) :   3.0230 B(  0-C ,  2-H ) :   0.9224 

-------
TIMINGS
-------

Total SCF time: 0 days 0 hours 0 min 4 sec 

Total time                  ....       4.325 sec
Sum of individual times     ....       4.299 sec  ( 99.4%)

Fock matrix formation       ....       3.679 sec  ( 85.1%)
  Split-RI-J                ....       1.132 sec  ( 30.8% of F)
  XC integration            ....       2.518 sec  ( 68.4% of F)
    Basis function eval.    ....       1.181 sec  ( 46.9% of XC)
    Density eval.           ....       0.265 sec  ( 10.5% of XC)
    XC-Functional eval.     ....       0.405 sec  ( 16.1% of XC)
    XC-Potential eval.      ....       0.522 sec  ( 20.7% of XC)
Diagonalization             ....       0.009 sec  (  0.2%)
Density matrix formation    ....       0.000 sec  (  0.0%)
Population analysis         ....       0.002 sec  (  0.0%)
Initial guess               ....       0.282 sec  (  6.5%)
Orbital Transformation      ....       0.000 sec  (  0.0%)
Orbital Orthonormalization  ....       0.000 sec  (  0.0%)
DIIS solution               ....       0.005 sec  (  0.1%)
SOSCF solution              ....       0.013 sec  (  0.3%)
Grid generation             ....       0.308 sec  (  7.1%)

-------------------------   --------------------
FINAL SINGLE POINT ENERGY       -93.460002917841
-------------------------   --------------------


                            ***************************************
                            *     ORCA property calculations      *
                            ***************************************

                                    ---------------------
                                    Active property flags
                                    ---------------------
   (+) Dipole Moment


------------------------------------------------------------------------------
                       ORCA ELECTRIC PROPERTIES CALCULATION
------------------------------------------------------------------------------

Dipole Moment Calculation                       ... on
Quadrupole Moment Calculation                   ... off
Polarizability Calculation                      ... off
GBWName                                         ... testLin.gbw
Electron density file                           ... testLin.scfp.tmp
The origin for moment calculation is the CENTER OF MASS  = ( 0.000000,  0.000000  0.111392)

-------------
DIPOLE MOMENT
-------------
                                X             Y             Z
Electronic contribution:      0.00000       0.00000       0.39587
Nuclear contribution   :      0.00000       0.00000      -1.55948
                        -----------------------------------------
Total Dipole Moment    :      0.00000       0.00000      -1.16360
                        -----------------------------------------
Magnitude (a.u.)       :      1.16360
Magnitude (Debye)      :      2.95764


-------------------------------------------------------------------------------
                               ORCA SCF HESSIAN
-------------------------------------------------------------------------------

Hessian of the Kohn-Sham DFT energy:
Kohn-Sham wavefunction type                      ... RKS
Hartree-Fock exchange scaling                    ...    0.000
Number of operators                              ...    1
Number of atoms                                  ...    3
Basis set dimensions                             ...   68
Integral neglect threshold                       ... 2.5e-11
Integral primitive cutoff                        ... 2.5e-12

Setting up DFT Hessian calculations              ... 
Electron density on the grid                     ... found on disk
Building xc-kernel on the grid                   ... done   (      0.0 sec)
                                                     done   (      0.1 sec)

Nuclear repulsion Hessian                        ... done   (      0.0 sec)

----------------------------------------------
Forming right-hand sides of CP-SCF equations     ...
----------------------------------------------
One electron integral derivatives                ... done   (      0.1 sec)
Transforming the overlap derivative matrices     ... done   (      0.0 sec)
Making the Q(x) pseudodensities                  ... done   (      0.0 sec)
Adding the E*S(x)*S(y) terms to the Hessian      ... done   (      0.0 sec)
Calculating energy weighted overlap derivatives  ... done   (      0.0 sec)
Two electron integral derivatives (RI)           ... done   (      0.3 sec)
Exchange-correlation integral derivatives        ... done   (      2.4 sec)
tr(F(y)Q(x)) contribution to the Hessian         ... done   (      0.0 sec)
Response fock operator R(S(x)) (RI)              ... done   (      0.3 sec)
XC Response fock operator R(S(x))                ... done   (      0.7 sec)
tr(F(y)S(x)) contribution to the Hessian         ... done   (      0.0 sec)
Transforming and finalizing RHSs                 ... done   (      0.0 sec)

----------------------------------------------
Solving the CP-SCF equations (RI)                ...
----------------------------------------------
     CP-SCF ITERATION   0: 
     CP-SCF ITERATION   1:      0.013779171290
     CP-SCF ITERATION   2:      0.000140369064
     CP-SCF ITERATION   3:      0.000002963472
     CP-SCF ITERATION   4:      0.000000025973
     CP-SCF ITERATION   5:      0.000000005540

                                                 ... done   (      6.3 sec)
Forming perturbed density Hessian contributions  ... done   (      0.0 sec)
Making the perturbed densities                   ... done   (      0.0 sec)
2nd integral derivative contribs (RI)            ... done   (      0.5 sec)
Exchange-correlation Hessian                     ... done   (      1.8 sec)
Dipol derivatives                                ... done   (      0.1 sec)

Total SCF Hessian time: 0 days 0 hours 0 min 12 sec 

Writing the Hessian file to the disk             ... done

Warning: T+R mode no 5 is zero 

-----------------------
VIBRATIONAL FREQUENCIES
-----------------------

   0:         0.00 cm**-1
   1:         0.00 cm**-1
   2:         0.00 cm**-1
   3:         0.00 cm**-1
   4:         0.00 cm**-1
   5:       780.66 cm**-1
   6:       780.66 cm**-1
   7:      1895.60 cm**-1
   8:      3229.50 cm**-1


------------
NORMAL MODES
------------

These modes are the cartesian displacements weighted by the diagonal matrix
M(i,i)=1/sqrt(m[i]) where m[i] is the mass of the displaced atom
Thus, these vectors are normalized but *not* orthogonal

                  0          1          2          3          4          5    
      0       0.000000   0.000000   0.000000   0.000000   0.000000   0.155630
      1       0.000000   0.000000   0.000000   0.000000   0.000000   0.027974
      2       0.000000   0.000000   0.000000   0.000000   0.000000   0.000000
      3       0.000000   0.000000   0.000000   0.000000   0.000000  -0.063665
      4       0.000000   0.000000   0.000000   0.000000   0.000000  -0.011444
      5       0.000000   0.000000   0.000000   0.000000   0.000000  -0.000000
      6       0.000000   0.000000   0.000000   0.000000   0.000000  -0.969757
      7       0.000000   0.000000   0.000000   0.000000   0.000000  -0.174312
      8       0.000000   0.000000   0.000000   0.000000   0.000000   0.000000
                   6          7          8    
      0       0.027974   0.000000  -0.000000
      1      -0.155630  -0.000000  -0.000000
      2       0.000000  -0.445076   0.115053
      3      -0.011444  -0.000000   0.000000
      4       0.063665   0.000000   0.000000
      5      -0.000000   0.437866  -0.027199
      6      -0.174312  -0.000000   0.000000
      7       0.969757   0.000000   0.000000
      8       0.000000  -0.781141  -0.992987


-----------
IR SPECTRUM
-----------

 Mode    freq (cm**-1)   T**2         TX         TY         TZ
-------------------------------------------------------------------
   5:       780.66   41.873303  ( -6.368889  -1.144798  -0.000000)
   6:       780.66   41.873303  ( -1.144798   6.368889  -0.000000)
   7:      1895.60    0.007411  ( -0.000000   0.000000  -0.086084)
   8:      3229.50   57.858007  ( -0.000000   0.000000  -7.606445)

The first frequency considered to be a vibration is 5
The total number of vibrations considered is 4


--------------------------
THERMOCHEMISTRY AT 298.15K
--------------------------

Temperature         ... 298.15 K
Pressure            ... 1.00 atm
Total Mass          ... 27.03 AMU
The molecule is recognized as being linear

Throughout the following assumptions are being made:
  (1) The electronic state is orbitally nondegenerate
  (2) There are no thermally accessible electronically excited states
  (3) Hindered rotations indicated by low frequency modes are not
      treated as such but are treated as vibrations and this may
      cause some error
  (4) All equations used are the standard statistical mechanics
      equations for an ideal gas
  (5) All vibrations are strictly harmonic

freq.     780.66  E(vib)   ...       0.05 
freq.     780.66  E(vib)   ...       0.05 
freq.    1895.60  E(vib)   ...       0.00 
freq.    3229.50  E(vib)   ...       0.00 

------------
INNER ENERGY
------------

The inner energy is: U= E(el) + E(ZPE) + E(vib) + E(rot) + E(trans)
    E(el)   - is the total energy from the electronic structure calculation
              = E(kin-el) + E(nuc-el) + E(el-el) + E(nuc-nuc)
    E(ZPE)  - the the zero temperature vibrational energy from the frequency calculation
    E(vib)  - the the finite temperature correction to E(ZPE) due to population
              of excited vibrational states
    E(rot)  - is the rotational thermal energy
    E(trans)- is the translational thermal energy

Summary of contributions to the inner energy U:
Electronic energy                ...    -93.46000292 Eh
Zero point energy                ...      0.01523281 Eh       9.56 kcal/mol
Thermal vibrational correction   ...      0.00016927 Eh       0.11 kcal/mol
Thermal rotational correction    ...      0.00094418 Eh       0.59 kcal/mol
Thermal translational correction ...      0.00141627 Eh       0.89 kcal/mol
-----------------------------------------------------------------------
Total thermal energy                    -93.44224038 Eh


Summary of corrections to the electronic energy:
(perhaps to be used in another calculation)
Total thermal correction                  0.00252973 Eh       1.59 kcal/mol
Non-thermal (ZPE) correction              0.01523281 Eh       9.56 kcal/mol
-----------------------------------------------------------------------
Total correction                          0.01776254 Eh      11.15 kcal/mol


--------
ENTHALPY
--------

The enthalpy is H = U + kB*T
                kB is Boltzmann's constant
Total free energy                 ...    -93.44224038 Eh 
Thermal Enthalpy correction       ...      0.00094421 Eh       0.59 kcal/mol
-----------------------------------------------------------------------
Total Enthalpy                    ...    -93.44129617 Eh


Vibrational entropy computed according to the QRRHO of S. Grimme
Chem.Eur.J. 2012 18 9955


-------
ENTROPY
-------

The entropy contributions are T*S = T*(S(el)+S(vib)+S(rot)+S(trans)
     S(el)   - electronic entropy
     S(vib)  - vibrational entropy
     S(rot)  - rotational entropy
     S(trans)- translational entropy
The entropies will be listed as mutliplied by the temperature to get
units of energy

Electronic entropy                ...      0.00000000 Eh      0.00 kcal/mol
Vibrational entropy               ...      0.00021369 Eh      0.13 kcal/mol
Rotational entropy                ...      0.00501322 Eh      3.15 kcal/mol
Translational entropy             ...      0.01701823 Eh     10.68 kcal/mol
-----------------------------------------------------------------------
Final entropy term                ...      0.02224514 Eh     13.96 kcal/mol


CAUTION: The rotational entropy is not quite correctly treated here
         because it includes a symmetry number that is not yet correctly
         implemented in ORCA!
For a linear molecule the correct rotational entropy is:
    S(rot) = R*(ln(qrot/sn)+1)
    R    = 8.31441 J/mol/K = 1.987191683e-3 kcal/mol/K
    qrot =  148.8208821
    sn is the rotational symmetry number. We have assumed 2 here
       if it is different for your molecule then you should correct
       the printed rotational entropy by manually evaluating the equation
       as given above

For convenience we print out the resulting values for sn=1 - 12:
 sn= 1  qrot/sn=     148.8209 T*S(rot)=     3.56 kcal/mol T*S(tot)=    14.37 kcal/mol
 sn= 2  qrot/sn=      74.4104 T*S(rot)=     3.15 kcal/mol T*S(tot)=    13.96 kcal/mol
 sn= 3  qrot/sn=      49.6070 T*S(rot)=     2.91 kcal/mol T*S(tot)=    13.72 kcal/mol
 sn= 4  qrot/sn=      37.2052 T*S(rot)=     2.74 kcal/mol T*S(tot)=    13.55 kcal/mol
 sn= 5  qrot/sn=      29.7642 T*S(rot)=     2.60 kcal/mol T*S(tot)=    13.42 kcal/mol
 sn= 6  qrot/sn=      24.8035 T*S(rot)=     2.49 kcal/mol T*S(tot)=    13.31 kcal/mol
 sn= 7  qrot/sn=      21.2601 T*S(rot)=     2.40 kcal/mol T*S(tot)=    13.22 kcal/mol
 sn= 8  qrot/sn=      18.6026 T*S(rot)=     2.32 kcal/mol T*S(tot)=    13.14 kcal/mol
 sn= 9  qrot/sn=      16.5357 T*S(rot)=     2.25 kcal/mol T*S(tot)=    13.07 kcal/mol
 sn=10  qrot/sn=      14.8821 T*S(rot)=     2.19 kcal/mol T*S(tot)=    13.01 kcal/mol
 sn=11  qrot/sn=      13.5292 T*S(rot)=     2.14 kcal/mol T*S(tot)=    12.95 kcal/mol
 sn=12  qrot/sn=      12.4017 T*S(rot)=     2.08 kcal/mol T*S(tot)=    12.90 kcal/mol


-------------------
GIBBS FREE ENTHALPY
-------------------

The Gibbs free enthalpy is G = H - T*S

Total enthalpy                    ...    -93.44129617 Eh 
Total entropy correction          ...     -0.02224514 Eh    -13.96 kcal/mol
-----------------------------------------------------------------------
Final Gibbs free enthalpy         ...    -93.46354132 Eh

For completeness - the Gibbs free enthalpy minus the electronic energy
G-E(el)                           ...     -0.00353840 Eh     -2.22 kcal/mol


Timings for individual modules:

Sum of individual times         ...       17.137 sec (=   0.286 min)
GTO integral calculation        ...        0.170 sec (=   0.003 min)   1.0 %
SCF iterations                  ...        4.349 sec (=   0.072 min)  25.4 %
Analytical frequency calculation...       12.618 sec (=   0.210 min)  73.6 %
                             ****ORCA TERMINATED NORMALLY****
TOTAL RUN TIME: 0 days 0 hours 0 minutes 17 seconds 297 msec
