
                                 *****************
                                 * O   R   C   A *
                                 *****************

           --- An Ab Initio, DFT and Semiempirical electronic structure package ---

                  #######################################################
                  #                        -***-                        #
                  #  Department of molecular theory and spectroscopy    #
                  #              Directorship: Frank Neese              #
                  # Max Planck Institute for Chemical Energy Conversion #
                  #                  D-45470 Muelheim/Ruhr              #
                  #                       Germany                       #
                  #                                                     #
                  #                  All rights reserved                #
                  #                        -***-                        #
                  #######################################################


                         Program Version 4.0.1.2 - RELEASE -


 With contributions from (in alphabetic order):
   Daniel Aravena         : Magnetic Properties
   Michael Atanasov       : Ab Initio Ligand Field Theory
   Ute Becker             : Parallelization
   Martin Brehm           : Molecular dynamics
   Dmytro Bykov           : SCF Hessian
   Vijay G. Chilkuri      : MRCI spin determinant printing
   Dipayan Datta          : RHF DLPNO-CCSD density
   Achintya Kumar Dutta   : EOM-CC, STEOM-CC
   Dmitry Ganyushin       : Spin-Orbit,Spin-Spin,Magnetic field MRCI
   Yang Guo               : DLPNO-NEVPT2, CIM, IAO-localization
   Andreas Hansen         : Spin unrestricted coupled pair/coupled cluster methods
   Lee Huntington         : MR-EOM, pCC
   Robert Izsak           : Overlap fitted RIJCOSX, COSX-SCS-MP3, EOM
   Christian Kollmar      : KDIIS, OOCD, Brueckner-CCSD(T), CCSD density
   Simone Kossmann        : Meta GGA functionals, TD-DFT gradient, OOMP2, MP2 Hessian
   Martin Krupicka        : AUTO-CI
   Dagmar Lenk            : GEPOL surface
   Dimitrios Liakos       : Extrapolation schemes; parallel MDCI
   Dimitrios Manganas     : ROCIS; embedding schemes
   Dimitrios Pantazis     : SARC Basis sets
   Taras Petrenko         : DFT Hessian,TD-DFT gradient, ASA, ECA, R-Raman, ABS, FL, XAS/XES, NRVS
   Peter Pinski           : DLPNO-MP2
   Christoph Reimann      : Effective Core Potentials
   Marius Retegan         : Local ZFS, SOC
   Christoph Riplinger    : Optimizer, TS searches, QM/MM, DLPNO-CCSD(T), (RO)-DLPNO pert. Triples
   Tobias Risthaus        : Range-separated hybrids, TD-DFT gradient, RPA, STAB
   Michael Roemelt        : Restricted open shell CIS
   Masaaki Saitow         : Open-shell DLPNO
   Barbara Sandhoefer     : DKH picture change effects
   Kantharuban Sivalingam : CASSCF convergence, NEVPT2, FIC-MRCI
   Georgi Stoychev        : AutoAux
   Boris Wezisla          : Elementary symmetry handling
   Frank Wennmohs         : Technical directorship


 We gratefully acknowledge several colleagues who have allowed us to
 interface, adapt or use parts of their codes:
   Stefan Grimme, W. Hujo, H. Kruse,             : VdW corrections, initial TS optimization,
                  C. Bannwarth                     DFT functionals, gCP, sTDA/sTD-DF
   Ed Valeev                                     : LibInt (2-el integral package), F12 methods
   Garnet Chan, S. Sharma, J. Yang, R. Olivares  : DMRG
   Ulf Ekstrom                                   : XCFun DFT Library
   Mihaly Kallay                                 : mrcc  (arbitrary order and MRCC methods)
   Andreas Klamt, Michael Diedenhofen            : otool_cosmo (COSMO solvation model)
   Jiri Pittner, Ondrej Demel                    : Mk-CCSD
   Frank Weinhold                                : gennbo (NPA and NBO analysis)
   Christopher J. Cramer and Donald G. Truhlar   : smd solvation model


 Your calculation uses the libint2 library for the computation of 2-el integrals
 For citations please refer to: http://libint.valeyev.net

 This ORCA versions uses:
   CBLAS   interface :  Fast vector & matrix operations
   LAPACKE interface :  Fast linear algebra routines
   SCALAPACK package :  Parallel linear algebra routines


Your calculation utilizes the basis: def2-TZVP
   F. Weigend and R. Ahlrichs, Phys. Chem. Chem. Phys. 7, 3297 (2005).

Your calculation utilizes the auxiliary basis: def2/J
   F. Weigend, Phys. Chem. Chem. Phys. 8, 1057 (2006).

================================================================================
                                        WARNINGS
                       Please study these warnings very carefully!
================================================================================

Warning: TCutStore was < 0. Adjusted to Thresh (uncritical)

WARNING: your system is open-shell and RHF/RKS was chosen
  ===> : WILL SWITCH to UHF/UKS


INFO   : the flag for use of LIBINT has been found!

================================================================================
                                       INPUT FILE
================================================================================
NAME = testAtom.inp
|  1> ! RKS BP def2-TZVP RI def2/J
|  2> ! TightSCF Grid5 NoFinalGrid
|  3> * xyz 0 2
|  4> F      0.000000    0.000000    0.000000
|  5> *
|  6> 
|  7>                          ****END OF INPUT****
================================================================================

                       ****************************
                       * Single Point Calculation *
                       ****************************

---------------------------------
CARTESIAN COORDINATES (ANGSTROEM)
---------------------------------
  F      0.000000    0.000000    0.000000

----------------------------
CARTESIAN COORDINATES (A.U.)
----------------------------
  NO LB      ZA    FRAG     MASS         X           Y           Z
   0 F     9.0000    0    18.998    0.000000    0.000000    0.000000

--------------------------------
INTERNAL COORDINATES (ANGSTROEM)
--------------------------------
 F      0   0   0     0.000000000000     0.00000000     0.00000000

---------------------------
INTERNAL COORDINATES (A.U.)
---------------------------
 F      0   0   0     0.000000000000     0.00000000     0.00000000

---------------------
BASIS SET INFORMATION
---------------------
There are 1 groups of distinct atoms

 Group   1 Type F   : 11s6p2d1f contracted to 5s3p2d1f pattern {62111/411/11/1}

Atom   0F    basis set group =>   1
-------------------------------
AUXILIARY BASIS SET INFORMATION
-------------------------------
There are 1 groups of distinct atoms

 Group   1 Type F   : 12s5p4d2f1g contracted to 6s4p3d1f1g pattern {711111/2111/211/2/1}

Atom   0F    basis set group =>   1

Checking for AutoStart:
The File: testAtom.gbw exists
Trying to determine its content:
     ... Fine, the file contains calculation information
     ... Fine, the calculation information was read
     ... Fine, the file contains a basis set
     ... Fine, the basis set was read
     ... Fine, the file contains a geometry
     ... Fine, the geometry was read
     ... Fine, the file contains a set of orbitals
     ... Fine, the orbitals can be read
     => possible old guess file was deleted
     => GBW file was renamed to GES file
     => GES file is set as startup file
     => Guess is set to MORead
     ... now leaving AutoStart

------------------------------------------------------------------------------
                           ORCA GTO INTEGRAL CALCULATION
                           -- RI-GTO INTEGRALS CHOSEN --
------------------------------------------------------------------------------

                         BASIS SET STATISTICS AND STARTUP INFO

Gaussian basis set:
 # of primitive gaussian shells          ...   20
 # of primitive gaussian functions       ...   46
 # of contracted shells                  ...   11
 # of contracted basis functions         ...   31
 Highest angular momentum                ...    3
 Maximum contraction depth               ...    6
Auxiliary gaussian basis set:
 # of primitive gaussian shells          ...   24
 # of primitive gaussian functions       ...   70
 # of contracted shells                  ...   15
 # of contracted aux-basis functions     ...   49
 Highest angular momentum                ...    4
 Maximum contraction depth               ...    7
Ratio of auxiliary to basis functions    ...  1.58
Integral package used                  ... LIBINT
 One Electron integrals                  ... done
 Ordering auxiliary basis shells         ... done
 Integral threshhold             Thresh  ...  2.500e-11
 Primitive cut-off               TCut    ...  2.500e-12
 Pre-screening matrix                    ... done
 Shell pair data                         ... 
 Ordering of the shell pairs             ... done (   0.000 sec) 66 of 66 pairs
 Determination of significant pairs      ... done (   0.000 sec)
 Creation of shell pair data             ... done (   0.000 sec)
 Storage of shell pair data              ... done (   0.001 sec)
 Shell pair data done in (   0.001 sec)
 Computing two index integrals           ... done
 Cholesky decomposition of the V-matrix  ... done


Timings:
 Total evaluation time                   ...   0.128 sec (  0.002 min)
 One electron matrix time                ...   0.005 sec (  0.000 min) =  3.5%
 Schwartz matrix evaluation time         ...   0.107 sec (  0.002 min) = 84.0%
 Two index repulsion integral time       ...   0.000 sec (  0.000 min) =  0.3%
 Cholesky decomposition of V             ...   0.000 sec (  0.000 min) =  0.3%
 Three index repulsion integral time     ...   0.000 sec (  0.000 min) =  0.0%

-------------------------------------------------------------------------------
                                 ORCA SCF
-------------------------------------------------------------------------------

------------
SCF SETTINGS
------------
Hamiltonian:
 Density Functional     Method          .... DFT(GTOs)
 Exchange Functional    Exchange        .... B88
   X-Alpha parameter    XAlpha          ....  0.666667
   Becke's b parameter  XBeta           ....  0.004200
 Correlation Functional Correlation     .... P86
 LDA part of GGA corr.  LDAOpt          .... PW91-LDA
 Gradients option       PostSCFGGA      .... off
 RI-approximation to the Coulomb term is turned on
   Number of auxiliary basis functions  .... 49


General Settings:
 Integral files         IntName         .... testAtom
 Hartree-Fock type      HFTyp           .... UHF
 Total Charge           Charge          ....    0
 Multiplicity           Mult            ....    2
 Number of Electrons    NEL             ....    9
 Basis Dimension        Dim             ....   31
 Nuclear Repulsion      ENuc            ....      0.0000000000 Eh

Convergence Acceleration:
 DIIS                   CNVDIIS         .... on
   Start iteration      DIISMaxIt       ....    12
   Startup error        DIISStart       ....  0.200000
   # of expansion vecs  DIISMaxEq       ....     5
   Bias factor          DIISBfac        ....   1.050
   Max. coefficient     DIISMaxC        ....  10.000
 Newton-Raphson         CNVNR           .... off
 SOSCF                  CNVSOSCF        .... off
 Level Shifting         CNVShift        .... on
   Level shift para.    LevelShift      ....    0.2500
   Turn off err/grad.   ShiftErr        ....    0.0010
 Zerner damping         CNVZerner       .... off
 Static damping         CNVDamp         .... on
   Fraction old density DampFac         ....    0.7000
   Max. Damping (<1)    DampMax         ....    0.9800
   Min. Damping (>=0)   DampMin         ....    0.0000
   Turn off err/grad.   DampErr         ....    0.1000
 Fernandez-Rico         CNVRico         .... off

SCF Procedure:
 Maximum # iterations   MaxIter         ....   125
 SCF integral mode      SCFMode         .... Direct
   Integral package                     .... LIBINT
 Reset frequeny         DirectResetFreq ....    20
 Integral Threshold     Thresh          ....  2.500e-11 Eh
 Primitive CutOff       TCut            ....  2.500e-12 Eh

Convergence Tolerance:
 Convergence Check Mode ConvCheckMode   .... Total+1el-Energy
 Convergence forced     ConvForced      .... 0
 Energy Change          TolE            ....  1.000e-08 Eh
 1-El. energy change                    ....  1.000e-05 Eh
 DIIS Error             TolErr          ....  5.000e-07


Diagonalization of the overlap matrix:
Smallest eigenvalue                        ... 3.088e-02
Time for diagonalization                   ...    0.000 sec
Threshold for overlap eigenvalues          ... 1.000e-08
Number of eigenvalues below threshold      ... 0
Time for construction of square roots      ...    0.001 sec
Total time needed                          ...    0.001 sec

---------------------
INITIAL GUESS: MOREAD
---------------------
Guess MOs are being read from file: testAtom.ges
Input Geometry matches current geometry (good)
Input basis set matches current basis set (good)
MOs were renormalized
MOs were reorthogonalized (Cholesky)
                      ------------------
                      INITIAL GUESS DONE (   0.0 sec)
                      ------------------
-------------------
DFT GRID GENERATION
-------------------

General Integration Accuracy     IntAcc      ...  5.010
Radial Grid Type                 RadialGrid  ... Gauss-Chebyshev
Angular Grid (max. acc.)         AngularGrid ... Lebedev-434
Angular grid pruning method      GridPruning ... 3 (G Style)
Weight generation scheme         WeightScheme... Becke
Basis function cutoff            BFCut       ...    1.0000e-11
Integration weight cutoff        WCut        ...    1.0000e-14
Grids for H and He will be reduced by one unit

# of grid points (after initial pruning)     ...  10818 (   0.0 sec)
# of grid points (after weights+screening)   ...  10818 (   0.0 sec)
Grid point division into batches done        ...    0.1 sec
Reduced shell lists constructed in    0.1 sec

Total number of grid points                  ...    10818
Total number of batches                      ...      170
Average number of points per batch           ...       63
Average number of grid points per atom       ...    10818
Average number of shells per batch           ...     8.08 (73.47%)
Average number of basis functions per batch  ...    23.43 (75.57%)
Average number of large shells per batch     ...     7.57 (93.63%)
Average number of large basis fcns per batch ...    22.15 (94.56%)
Maximum spatial batch extension              ...  16.29, 16.29, 16.29 au
Average spatial batch extension              ...   3.80,  3.71,  3.72 au

Time for grid setup =    0.101 sec

--------------
SCF ITERATIONS
--------------
ITER       Energy         Delta-E        Max-DP      RMS-DP      [F,P]     Damp
               ***  Starting incremental Fock matrix formation  ***
  0    -99.7647043733   0.000000000000 0.00000078  0.00000006  0.0000020 0.7000
                 **** Energy Check signals convergence ****

               *****************************************************
               *                     SUCCESS                       *
               *           SCF CONVERGED AFTER   1 CYCLES          *
               *****************************************************


----------------
TOTAL SCF ENERGY
----------------

Total Energy       :          -99.76470437 Eh           -2714.73562 eV

Components:
Nuclear Repulsion  :            0.00000000 Eh               0.00000 eV
Electronic Energy  :          -99.76470437 Eh           -2714.73562 eV
One Electron Energy:         -139.14952555 Eh           -3786.45109 eV
Two Electron Energy:           39.38482117 Eh            1071.71547 eV

Virial components:
Potential Energy   :         -199.26503627 Eh           -5422.27730 eV
Kinetic Energy     :           99.50033190 Eh            2707.54168 eV
Virial Ratio       :            2.00265700


DFT components:
N(Alpha)           :        4.999999781531 electrons
N(Beta)            :        3.999999781511 electrons
N(Total)           :        8.999999563041 electrons
E(X)               :      -10.040955532430 Eh       
E(C)               :       -0.325509083415 Eh       
E(XC)              :      -10.366464615845 Eh       

---------------
SCF CONVERGENCE
---------------

  Last Energy change         ...    3.8962e-10  Tolerance :   1.0000e-08
  Last MAX-Density change    ...    3.4465e-07  Tolerance :   1.0000e-07
  Last RMS-Density change    ...    2.5662e-08  Tolerance :   5.0000e-09
  Last DIIS Error            ...    1.4007e-06  Tolerance :   5.0000e-07

             **** THE GBW FILE WAS UPDATED (testAtom.gbw) ****
             **** DENSITY FILE WAS UPDATED (testAtom.scfp.tmp) ****
             **** ENERGY FILE WAS UPDATED (testAtom.en.tmp) ****
----------------------
UHF SPIN CONTAMINATION
----------------------

Warning: in a DFT calculation there is little theoretical justification to 
         calculate <S**2> as in Hartree-Fock theory. We will do it anyways
         but you should keep in mind that the values have only limited relevance

Expectation value of <S**2>     :     0.751274
Ideal value S*(S+1) for S=0.5   :     0.750000
Deviation                       :     0.001274

----------------
ORBITAL ENERGIES
----------------
                 SPIN UP ORBITALS
  NO   OCC          E(Eh)            E(eV) 
   0   1.0000     -24.375998      -663.3046 
   1   1.0000      -1.123526       -30.5727 
   2   1.0000      -0.494455       -13.4548 
   3   1.0000      -0.405356       -11.0303 
   4   1.0000      -0.405356       -11.0303 
   5   0.0000       0.406946        11.0736 
   6   0.0000       0.446454        12.1486 
   7   0.0000       0.475083        12.9277 
   8   0.0000       0.475083        12.9277 
   9   0.0000       1.779698        48.4280 
  10   0.0000       1.795142        48.8483 
  11   0.0000       1.795142        48.8483 
  12   0.0000       1.845845        50.2280 
  13   0.0000       1.845845        50.2280 
  14   0.0000       2.892591        78.7114 
  15   0.0000       2.964037        80.6555 
  16   0.0000       2.964037        80.6555 
  17   0.0000       3.254437        88.5577 
  18   0.0000       6.599994       179.5950 
  19   0.0000       6.610225       179.8734 
  20   0.0000       6.610225       179.8734 
  21   0.0000       6.641681       180.7293 
  22   0.0000       6.641681       180.7293 
  23   0.0000       6.694983       182.1798 
  24   0.0000       6.694983       182.1798 
  25   0.0000       7.920544       215.5290 
  26   0.0000       7.945491       216.2078 
  27   0.0000       7.945491       216.2078 
  28   0.0000       8.022708       218.3090 
  29   0.0000       8.022708       218.3090 
  30   0.0000      55.585962      1512.5709 

                 SPIN DOWN ORBITALS
  NO   OCC          E(Eh)            E(eV) 
   0   1.0000     -24.346738      -662.5084 
   1   1.0000      -1.049776       -28.5658 
   2   1.0000      -0.377429       -10.2704 
   3   1.0000      -0.377428       -10.2704 
   4   0.0000      -0.337916        -9.1952 
   5   0.0000       0.432513        11.7693 
   6   0.0000       0.484362        13.1801 
   7   0.0000       0.484362        13.1802 
   8   0.0000       0.507187        13.8013 
   9   0.0000       1.853436        50.4346 
  10   0.0000       1.853436        50.4346 
  11   0.0000       1.857741        50.5517 
  12   0.0000       1.857741        50.5517 
  13   0.0000       1.877276        51.0833 
  14   0.0000       2.988689        81.3264 
  15   0.0000       2.988689        81.3264 
  16   0.0000       3.032736        82.5249 
  17   0.0000       3.316366        90.2429 
  18   0.0000       6.698911       182.2866 
  19   0.0000       6.698911       182.2866 
  20   0.0000       6.699872       182.3128 
  21   0.0000       6.699872       182.3128 
  22   0.0000       6.713754       182.6905 
  23   0.0000       6.713754       182.6905 
  24   0.0000       6.729884       183.1295 
  25   0.0000       8.038190       218.7303 
  26   0.0000       8.038190       218.7303 
  27   0.0000       8.065099       219.4625 
  28   0.0000       8.065100       219.4625 
  29   0.0000       8.112525       220.7530 
  30   0.0000      55.624731      1513.6259 

                    ********************************
                    * MULLIKEN POPULATION ANALYSIS *
                    ********************************

--------------------------------------------
MULLIKEN ATOMIC CHARGES AND SPIN POPULATIONS
--------------------------------------------
   0 F :   -0.000000    1.000000
Sum of atomic charges         :   -0.0000000
Sum of atomic spin populations:    1.0000000

-----------------------------------------------------
MULLIKEN REDUCED ORBITAL CHARGES AND SPIN POPULATIONS
-----------------------------------------------------
CHARGE
  0 F s       :     3.999607  s :     3.999607
      pz      :     1.916853  p :     4.999863
      px      :     1.236375
      py      :     1.846635
      dz2     :     0.000055  d :     0.000393
      dxz     :     0.000075
      dyz     :     0.000015
      dx2y2   :     0.000110
      dxy     :     0.000138
      f0      :     0.000013  f :     0.000137
      f+1     :     0.000022
      f-1     :     0.000005
      f+2     :     0.000017
      f-2     :     0.000019
      f+3     :     0.000031
      f-3     :     0.000030

SPIN
  0 F s       :    -0.000320  s :    -0.000320
      pz      :     0.083067  p :     0.999866
      px      :     0.763518
      py      :     0.153281
      dz2     :     0.000045  d :     0.000320
      dxz     :     0.000061
      dyz     :     0.000012
      dx2y2   :     0.000089
      dxy     :     0.000112
      f0      :     0.000012  f :     0.000134
      f+1     :     0.000021
      f-1     :     0.000005
      f+2     :     0.000016
      f-2     :     0.000018
      f+3     :     0.000030
      f-3     :     0.000030


                     *******************************
                     * LOEWDIN POPULATION ANALYSIS *
                     *******************************

-------------------------------------------
LOEWDIN ATOMIC CHARGES AND SPIN POPULATIONS
-------------------------------------------
   0 F :    0.000000    1.000000

----------------------------------------------------
LOEWDIN REDUCED ORBITAL CHARGES AND SPIN POPULATIONS
----------------------------------------------------
CHARGE
  0 F s       :     3.999607  s :     3.999607
      pz      :     1.916853  p :     4.999863
      px      :     1.236375
      py      :     1.846635
      dz2     :     0.000055  d :     0.000393
      dxz     :     0.000075
      dyz     :     0.000015
      dx2y2   :     0.000110
      dxy     :     0.000138
      f0      :     0.000013  f :     0.000137
      f+1     :     0.000022
      f-1     :     0.000005
      f+2     :     0.000017
      f-2     :     0.000019
      f+3     :     0.000031
      f-3     :     0.000030

SPIN
  0 F s       :    -0.000320  s :    -0.000320
      pz      :     0.083067  p :     0.999866
      px      :     0.763518
      py      :     0.153281
      dz2     :     0.000045  d :     0.000320
      dxz     :     0.000061
      dyz     :     0.000012
      dx2y2   :     0.000089
      dxy     :     0.000112
      f0      :     0.000012  f :     0.000134
      f+1     :     0.000021
      f-1     :     0.000005
      f+2     :     0.000016
      f-2     :     0.000018
      f+3     :     0.000030
      f-3     :     0.000030


                      *****************************
                      * MAYER POPULATION ANALYSIS *
                      *****************************

  NA   - Mulliken gross atomic population
  ZA   - Total nuclear charge
  QA   - Mulliken gross atomic charge
  VA   - Mayer's total valence
  BVA  - Mayer's bonded valence
  FA   - Mayer's free valence

  ATOM       NA         ZA         QA         VA         BVA        FA
  0 F      9.0000     9.0000    -0.0000     1.0025     0.0000     1.0025

  Mayer bond orders larger than 0.1


-------
TIMINGS
-------

Total SCF time: 0 days 0 hours 0 min 0 sec 

Total time                  ....       0.393 sec
Sum of individual times     ....       0.385 sec  ( 98.0%)

Fock matrix formation       ....       0.250 sec  ( 63.6%)
  Split-RI-J                ....       0.150 sec  ( 60.0% of F)
  XC integration            ....       0.095 sec  ( 38.2% of F)
    Basis function eval.    ....       0.031 sec  ( 32.4% of XC)
    Density eval.           ....       0.014 sec  ( 14.5% of XC)
    XC-Functional eval.     ....       0.024 sec  ( 25.6% of XC)
    XC-Potential eval.      ....       0.015 sec  ( 15.5% of XC)
Diagonalization             ....       0.001 sec  (  0.3%)
Density matrix formation    ....       0.000 sec  (  0.0%)
Population analysis         ....       0.002 sec  (  0.6%)
Initial guess               ....       0.030 sec  (  7.7%)
Orbital Transformation      ....       0.000 sec  (  0.0%)
Orbital Orthonormalization  ....       0.000 sec  (  0.0%)
DIIS solution               ....       0.000 sec  (  0.0%)
Grid generation             ....       0.101 sec  ( 25.6%)

-------------------------   --------------------
FINAL SINGLE POINT ENERGY       -99.764704372885
-------------------------   --------------------


                            ***************************************
                            *     ORCA property calculations      *
                            ***************************************

                                    ---------------------
                                    Active property flags
                                    ---------------------
   (+) Dipole Moment


------------------------------------------------------------------------------
                       ORCA ELECTRIC PROPERTIES CALCULATION
------------------------------------------------------------------------------

Dipole Moment Calculation                       ... on
Quadrupole Moment Calculation                   ... off
Polarizability Calculation                      ... off
GBWName                                         ... testAtom.gbw
Electron density file                           ... testAtom.scfp.tmp
The origin for moment calculation is the CENTER OF MASS  = ( 0.000000,  0.000000  0.000000)

-------------
DIPOLE MOMENT
-------------
                                X             Y             Z
Electronic contribution:     -0.00000       0.00000      -0.00000
Nuclear contribution   :      0.00000       0.00000       0.00000
                        -----------------------------------------
Total Dipole Moment    :     -0.00000       0.00000      -0.00000
                        -----------------------------------------
Magnitude (a.u.)       :      0.00000
Magnitude (Debye)      :      0.00000


Timings for individual modules:

Sum of individual times         ...        0.571 sec (=   0.010 min)
GTO integral calculation        ...        0.157 sec (=   0.003 min)  27.5 %
SCF iterations                  ...        0.414 sec (=   0.007 min)  72.5 %
                             ****ORCA TERMINATED NORMALLY****
TOTAL RUN TIME: 0 days 0 hours 0 minutes 0 seconds 687 msec
