 Entering Gaussian System, Link 0=g09
 Initial command:
 /apps/gaussian/g09/l1.exe /scratch_l/henon/2Rfreq_942/Gau-958.inp -scrdir=/scratch_l/henon/2Rfreq_942/
 Entering Link 1 = /apps/gaussian/g09/l1.exe PID=       959.
  
 Copyright (c) 1988,1990,1992,1993,1995,1998,2003,2009, Gaussian, Inc.
                  All Rights Reserved.
  
 This is part of the Gaussian(R) 09 program.  It is based on
 the Gaussian(R) 03 system (copyright 2003, Gaussian, Inc.),
 the Gaussian(R) 98 system (copyright 1998, Gaussian, Inc.),
 the Gaussian(R) 94 system (copyright 1995, Gaussian, Inc.),
 the Gaussian 92(TM) system (copyright 1992, Gaussian, Inc.),
 the Gaussian 90(TM) system (copyright 1990, Gaussian, Inc.),
 the Gaussian 88(TM) system (copyright 1988, Gaussian, Inc.),
 the Gaussian 86(TM) system (copyright 1986, Carnegie Mellon
 University), and the Gaussian 82(TM) system (copyright 1983,
 Carnegie Mellon University). Gaussian is a federally registered
 trademark of Gaussian, Inc.
  
 This software contains proprietary and confidential information,
 including trade secrets, belonging to Gaussian, Inc.
  
 This software is provided under written license and may be
 used, copied, transmitted, or stored only in accord with that
 written license.
  
 The following legend is applicable only to US Government
 contracts under FAR:
  
                    RESTRICTED RIGHTS LEGEND
  
 Use, reproduction and disclosure by the US Government is
 subject to restrictions as set forth in subparagraphs (a)
 and (c) of the Commercial Computer Software - Restricted
 Rights clause in FAR 52.227-19.
  
 Gaussian, Inc.
 340 Quinnipiac St., Bldg. 40, Wallingford CT 06492
  
  
 ---------------------------------------------------------------
 Warning -- This program may not be used in any manner that
 competes with the business of Gaussian, Inc. or will provide
 assistance to any competitor of Gaussian, Inc.  The licensee
 of this program is prohibited from giving any competitor of
 Gaussian, Inc. access to this program.  By using this program,
 the user acknowledges that Gaussian, Inc. is engaged in the
 business of creating and licensing software in the field of
 computational chemistry and represents and warrants to the
 licensee that it is not a competitor of Gaussian, Inc. and that
 it will not use this program in any manner prohibited above.
 ---------------------------------------------------------------
  

 Cite this work as:
 Gaussian 09, Revision A.02,
 M. J. Frisch, G. W. Trucks, H. B. Schlegel, G. E. Scuseria, 
 M. A. Robb, J. R. Cheeseman, G. Scalmani, V. Barone, B. Mennucci, 
 G. A. Petersson, H. Nakatsuji, M. Caricato, X. Li, H. P. Hratchian, 
 A. F. Izmaylov, J. Bloino, G. Zheng, J. L. Sonnenberg, M. Hada, 
 M. Ehara, K. Toyota, R. Fukuda, J. Hasegawa, M. Ishida, T. Nakajima, 
 Y. Honda, O. Kitao, H. Nakai, T. Vreven, J. A. Montgomery, Jr., 
 J. E. Peralta, F. Ogliaro, M. Bearpark, J. J. Heyd, E. Brothers, 
 K. N. Kudin, V. N. Staroverov, R. Kobayashi, J. Normand, 
 K. Raghavachari, A. Rendell, J. C. Burant, S. S. Iyengar, J. Tomasi, 
 M. Cossi, N. Rega, J. M. Millam, M. Klene, J. E. Knox, J. B. Cross, 
 V. Bakken, C. Adamo, J. Jaramillo, R. Gomperts, R. E. Stratmann, 
 O. Yazyev, A. J. Austin, R. Cammi, C. Pomelli, J. W. Ochterski, 
 R. L. Martin, K. Morokuma, V. G. Zakrzewski, G. A. Voth, 
 P. Salvador, J. J. Dannenberg, S. Dapprich, A. D. Daniels, 
 O. Farkas, J. B. Foresman, J. V. Ortiz, J. Cioslowski, 
 and D. J. Fox, Gaussian, Inc., Wallingford CT, 2009.
 
 ******************************************
 Gaussian 09:  AM64L-G09RevA.02 11-Jun-2009
                25-Apr-2014 
 ******************************************
 %NPROC=12
 Will use up to   12 processors via shared memory.
 %MEM=500MB
 --------------------------------------------------
 #P M06 6-311G** FREQ # GFINPUT IOP(6/7=3) POP=FULL
 --------------------------------------------------
 1/10=4,30=1,38=1/1,3;
 2/12=2,17=6,18=5,40=1/2;
 3/5=4,6=6,7=101,11=2,16=1,24=10,25=1,30=1,71=2,74=-54/1,2,3;
 4//1;
 5/5=2,38=5,98=1/2;
 8/6=4,10=90,11=11/1;
 11/6=1,8=1,9=11,15=111,16=1/1,2,10;
 10/6=1/2;
 6/7=3,18=1,28=1/1;
 7/8=1,10=1,25=1/1,2,3,16;
 1/10=4,30=1/3;
 99//99;
 Leave Link    1 at Fri Apr 25 17:09:41 2014, MaxMem=   65536000 cpu:       0.3
 (Enter /apps/gaussian/g09/l101.exe)
 ----------------------------------
 reverse IRC, from TS reverse1 freq
 ----------------------------------
 Symbolic Z-matrix:
 Charge =  0 Multiplicity = 2
 7                    -0.118    -0.07432   0.09201 
 7                    -0.23002  -0.01707   1.22548 
 7                     0.30058   0.00778  -1.08502 
 1                    -0.47141  -0.01553  -1.74634 
 1                     1.1306    1.17692  -1.48359 
 
 NAtoms=      5 NQM=      5 NQMF=      0 NMic=      0 NMicF=      0 NTot=      5.
                    Isotopes and Nuclear Properties:
 (Nuclear quadrupole moments (NQMom) in fm**2, nuclear magnetic moments (NMagM)
  in nuclear magnetons)

  Atom         1           2           3           4           5
 IAtWgt=          14          14          14           1           1
 AtmWgt=  14.0030740  14.0030740  14.0030740   1.0078250   1.0078250
 NucSpn=           2           2           2           1           1
 AtZEff=   0.0000000   0.0000000   0.0000000   0.0000000   0.0000000
 NQMom=    2.0440000   2.0440000   2.0440000   0.0000000   0.0000000
 NMagM=    0.4037610   0.4037610   0.4037610   2.7928460   2.7928460
 Leave Link  101 at Fri Apr 25 17:09:41 2014, MaxMem=   65536000 cpu:       0.6
 (Enter /apps/gaussian/g09/l103.exe)

 GradGradGradGradGradGradGradGradGradGradGradGradGradGradGradGradGradGrad
 Berny optimization.
 Initialization pass.
 Trust Radius=3.00D-01 FncErr=1.00D-07 GrdErr=1.00D-07
 Number of steps in this run=   2 maximum allowed number of steps=   2.
 GradGradGradGradGradGradGradGradGradGradGradGradGradGradGradGradGradGrad

 Leave Link  103 at Fri Apr 25 17:09:41 2014, MaxMem=   65536000 cpu:       0.1
 (Enter /apps/gaussian/g09/l202.exe)
                          Input orientation:                          
 ---------------------------------------------------------------------
 Center     Atomic      Atomic             Coordinates (Angstroms)
 Number     Number       Type             X           Y           Z
 ---------------------------------------------------------------------
      1          7           0       -0.118004   -0.074315    0.092010
      2          7           0       -0.230023   -0.017065    1.225480
      3          7           0        0.300577    0.007780   -1.085023
      4          1           0       -0.471414   -0.015525   -1.746341
      5          1           0        1.130599    1.176920   -1.483591
 ---------------------------------------------------------------------
                    Distance matrix (angstroms):
                    1          2          3          4          5
     1  N    0.000000
     2  N    1.140430   0.000000
     3  N    1.251941   2.370776   0.000000
     4  H    1.872936   2.981609   1.016786   0.000000
     5  H    2.367935   3.258214   1.488181   2.014301   0.000000
 Stoichiometry    H2N3(2)
 Framework group  C1[X(H2N3)]
 Deg. of freedom     9
 Full point group                 C1      NOp   1
 Largest Abelian subgroup         C1      NOp   1
 Largest concise Abelian subgroup C1      NOp   1
                         Standard orientation:                         
 ---------------------------------------------------------------------
 Center     Atomic      Atomic             Coordinates (Angstroms)
 Number     Number       Type             X           Y           Z
 ---------------------------------------------------------------------
      1          7           0        0.195815   -0.123112    0.000797
      2          7           0        1.315097    0.094529    0.021288
      3          7           0       -1.047793   -0.040196   -0.117184
      4          1           0       -1.512535   -0.755188    0.436583
      5          1           0       -1.729299    1.236640    0.229113
 ---------------------------------------------------------------------
 Rotational constants (GHZ):    177.1297127     11.0656333     10.5925817
 Leave Link  202 at Fri Apr 25 17:09:41 2014, MaxMem=   65536000 cpu:       0.0
 (Enter /apps/gaussian/g09/l301.exe)
 Standard basis: 6-311G(d,p) (5D, 7F)
 Ernie: Thresh=  0.10000D-02 Tol=  0.10000D-05 Strict=F.
 AO basis set in the form of general basis input (Overlap normalization):
      1 0
 S   6 1.00       0.000000000000
      0.6293480000D+04  0.1969788147D-02
      0.9490440000D+03  0.1496128592D-01
      0.2187760000D+03  0.7350053084D-01
      0.6369160000D+02  0.2489367658D+00
      0.1882820000D+02  0.6024594331D+00
      0.2720230000D+01  0.2562017589D+00
 SP   3 1.00       0.000000000000
      0.3063310000D+02  0.1119060795D+00  0.3831191864D-01
      0.7026140000D+01  0.9216666549D+00  0.2374031155D+00
      0.2112050000D+01 -0.2569191826D-02  0.8175923978D+00
 SP   1 1.00       0.000000000000
      0.6840090000D+00  0.1000000000D+01  0.1000000000D+01
 SP   1 1.00       0.000000000000
      0.2008780000D+00  0.1000000000D+01  0.1000000000D+01
 D   1 1.00       0.000000000000
      0.9130000000D+00  0.1000000000D+01
 ****
      2 0
 S   6 1.00       0.000000000000
      0.6293480000D+04  0.1969788147D-02
      0.9490440000D+03  0.1496128592D-01
      0.2187760000D+03  0.7350053084D-01
      0.6369160000D+02  0.2489367658D+00
      0.1882820000D+02  0.6024594331D+00
      0.2720230000D+01  0.2562017589D+00
 SP   3 1.00       0.000000000000
      0.3063310000D+02  0.1119060795D+00  0.3831191864D-01
      0.7026140000D+01  0.9216666549D+00  0.2374031155D+00
      0.2112050000D+01 -0.2569191826D-02  0.8175923978D+00
 SP   1 1.00       0.000000000000
      0.6840090000D+00  0.1000000000D+01  0.1000000000D+01
 SP   1 1.00       0.000000000000
      0.2008780000D+00  0.1000000000D+01  0.1000000000D+01
 D   1 1.00       0.000000000000
      0.9130000000D+00  0.1000000000D+01
 ****
      3 0
 S   6 1.00       0.000000000000
      0.6293480000D+04  0.1969788147D-02
      0.9490440000D+03  0.1496128592D-01
      0.2187760000D+03  0.7350053084D-01
      0.6369160000D+02  0.2489367658D+00
      0.1882820000D+02  0.6024594331D+00
      0.2720230000D+01  0.2562017589D+00
 SP   3 1.00       0.000000000000
      0.3063310000D+02  0.1119060795D+00  0.3831191864D-01
      0.7026140000D+01  0.9216666549D+00  0.2374031155D+00
      0.2112050000D+01 -0.2569191826D-02  0.8175923978D+00
 SP   1 1.00       0.000000000000
      0.6840090000D+00  0.1000000000D+01  0.1000000000D+01
 SP   1 1.00       0.000000000000
      0.2008780000D+00  0.1000000000D+01  0.1000000000D+01
 D   1 1.00       0.000000000000
      0.9130000000D+00  0.1000000000D+01
 ****
      4 0
 S   3 1.00       0.000000000000
      0.3386500000D+02  0.2549381454D-01
      0.5094790000D+01  0.1903731086D+00
      0.1158790000D+01  0.8521614860D+00
 S   1 1.00       0.000000000000
      0.3258400000D+00  0.1000000000D+01
 S   1 1.00       0.000000000000
      0.1027410000D+00  0.1000000000D+01
 P   1 1.00       0.000000000000
      0.7500000000D+00  0.1000000000D+01
 ****
      5 0
 S   3 1.00       0.000000000000
      0.3386500000D+02  0.2549381454D-01
      0.5094790000D+01  0.1903731086D+00
      0.1158790000D+01  0.8521614860D+00
 S   1 1.00       0.000000000000
      0.3258400000D+00  0.1000000000D+01
 S   1 1.00       0.000000000000
      0.1027410000D+00  0.1000000000D+01
 P   1 1.00       0.000000000000
      0.7500000000D+00  0.1000000000D+01
 ****

 There are    66 symmetry adapted basis functions of A   symmetry.
 Integral buffers will be    131072 words long.
 Raffenetti 2 integral format.
 Two-electron integral symmetry is turned on.
    66 basis functions,   112 primitive gaussians,    69 cartesian basis functions
    12 alpha electrons       11 beta electrons
       nuclear repulsion energy        66.7018287896 Hartrees.
 IExCor= 4235 DFT=T Ex+Corr=M06 ExCW=0 ScaHFX=  0.270000
 ScaDFX=  1.000000  1.000000  1.000000  1.000000 ScalE2=  1.000000  1.000000
 IRadAn=      0 IRanWt=     -1 IRanGd=            0 ICorTp=0
 NAtoms=    5 NActive=    5 NUniq=    5 SFac= 7.50D-01 NAtFMM=   80 NAOKFM=F Big=F
 Leave Link  301 at Fri Apr 25 17:09:41 2014, MaxMem=   65536000 cpu:       0.3
 (Enter /apps/gaussian/g09/l302.exe)
 NPDir=0 NMtPBC=     1 NCelOv=     1 NCel=       1 NClECP=     1 NCelD=      1
         NCelK=      1 NCelE2=     1 NClLst=     1 CellRange=     0.0.
 One-electron integrals computed using PRISM.
 NBasis=    66 RedAO= T  NBF=    66
 NBsUse=    66 1.00D-06 NBFU=    66
 Precomputing XC quadrature grid using
 IXCGrd= 2 IRadAn=           0 IRanWt=          -1 IRanGd=           0 AccXCQ= 1.00D-10.
 NRdTot=     311 NPtTot=       39452 NUsed=       41707 NTot=       41739
 NSgBfM=    69    69    69    69    69 NAtAll=     5     5.
 Leave Link  302 at Fri Apr 25 17:09:41 2014, MaxMem=   65536000 cpu:       2.4
 (Enter /apps/gaussian/g09/l303.exe)
 DipDrv:  MaxL=1.
 Leave Link  303 at Fri Apr 25 17:09:41 2014, MaxMem=   65536000 cpu:       0.2
 (Enter /apps/gaussian/g09/l401.exe)
 Harris functional with IExCor= 1009 diagonalized for initial guess.
 ExpMin= 1.03D-01 ExpMax= 6.29D+03 ExpMxC= 9.49D+02 IAcc=1 IRadAn=         1 AccDes= 0.00D+00
 HarFok:  IExCor= 1009 AccDes= 0.00D+00 IRadAn=         1 IDoV= 1
 ScaDFX=  1.000000  1.000000  1.000000  1.000000
 FoFCou: FMM=F IPFlag=           0 FMFlag=      100000 FMFlg1=           0
         NFxFlg=           0 DoJE=T BraDBF=F KetDBF=T FulRan=T
         Omega=  0.000000  0.000000  1.000000  0.000000  0.000000 ICntrl=     500 IOpCl=  0
         NMat0=    1 NMatS0=    1 NMatT0=    0 NMatD0=    1 NMtDS0=    0 NMtDT0=    0
         I1Cent=           4 NGrid=           0.
 Petite list used in FoFCou.
 Harris En= -165.179591161695    
 Initial guess orbital symmetries:
 Alpha Orbitals:
       Occupied  (A) (A) (A) (A) (A) (A) (A) (A) (A) (A) (A) (A)
       Virtual   (A) (A) (A) (A) (A) (A) (A) (A) (A) (A) (A) (A)
                 (A) (A) (A) (A) (A) (A) (A) (A) (A) (A) (A) (A)
                 (A) (A) (A) (A) (A) (A) (A) (A) (A) (A) (A) (A)
                 (A) (A) (A) (A) (A) (A) (A) (A) (A) (A) (A) (A)
                 (A) (A) (A) (A) (A) (A)
 Beta  Orbitals:
       Occupied  (A) (A) (A) (A) (A) (A) (A) (A) (A) (A) (A)
       Virtual   (A) (A) (A) (A) (A) (A) (A) (A) (A) (A) (A) (A)
                 (A) (A) (A) (A) (A) (A) (A) (A) (A) (A) (A) (A)
                 (A) (A) (A) (A) (A) (A) (A) (A) (A) (A) (A) (A)
                 (A) (A) (A) (A) (A) (A) (A) (A) (A) (A) (A) (A)
                 (A) (A) (A) (A) (A) (A) (A)
 The electronic state of the initial guess is 2-A.
 Initial guess <Sx>= 0.0000 <Sy>= 0.0000 <Sz>= 0.5000 <S**2>= 0.7500 S= 0.5000
 Leave Link  401 at Fri Apr 25 17:09:41 2014, MaxMem=   65536000 cpu:       1.7
 (Enter /apps/gaussian/g09/l502.exe)
 UHF open shell SCF:
 Requested convergence on RMS density matrix=1.00D-08 within 128 cycles.
 Requested convergence on MAX density matrix=1.00D-06.
 Requested convergence on             energy=1.00D-06.
 No special actions if energy rises.
 Using DIIS extrapolation, IDIIS=  1040.
 Integral symmetry usage will be decided dynamically.
        41649 words used for storage of precomputed grid.
 Keep R1 and R2 ints in memory in canonical form, NReq=6799222.
 IEnd=       75419 IEndB=       75419 NGot=    65536000 MDV=    59647384
 LenX=    59647384 LenY=    59642182
 Symmetry not used in FoFDir.
 MinBra= 0 MaxBra= 2 Meth= 1.
 IRaf=       0 NMat=   1 IRICut=       1 DoRegI=T DoRafI=F ISym2E= 0 JSym2E=0.
 Integral accuracy reduced to 1.0D-05 until final iterations.

 Cycle   1  Pass 0  IDiag  1:
 E= -165.186323281304    
 DIIS: error= 2.84D-02 at cycle   1 NSaved=   1.
 NSaved= 1 IEnMin= 1 EnMin= -165.186323281304     IErMin= 1 ErrMin= 2.84D-02
 ErrMax= 2.84D-02 EMaxC= 1.00D-01 BMatC= 1.88D-01 BMatP= 1.88D-01
 IDIUse=3 WtCom= 7.16D-01 WtEn= 2.84D-01
 Coeff-Com:  0.100D+01
 Coeff-En:   0.100D+01
 Coeff:      0.100D+01
 Gap=     0.171 Goal=   None    Shift=    0.000
 Gap=     0.217 Goal=   None    Shift=    0.000
 GapD=    0.171 DampG=1.000 DampE=0.500 DampFc=0.5000 IDamp=-1.
 Damping current iteration by 5.00D-01
 RMSDP=7.31D-03 MaxDP=1.85D-01              OVMax= 2.40D-01

 Cycle   2  Pass 0  IDiag  1:
 E= -165.192066376216     Delta-E=       -0.005743094912 Rises=F Damp=T
 DIIS: error= 1.73D-02 at cycle   2 NSaved=   2.
 NSaved= 2 IEnMin= 2 EnMin= -165.192066376216     IErMin= 2 ErrMin= 1.73D-02
 ErrMax= 1.73D-02 EMaxC= 1.00D-01 BMatC= 5.24D-02 BMatP= 1.88D-01
 IDIUse=3 WtCom= 8.27D-01 WtEn= 1.73D-01
 Coeff-Com:  0.290D+00 0.710D+00
 Coeff-En:   0.435D+00 0.565D+00
 Coeff:      0.316D+00 0.684D+00
 Gap=     0.152 Goal=   None    Shift=    0.000
 Gap=     0.239 Goal=   None    Shift=    0.000
 RMSDP=2.17D-03 MaxDP=2.74D-02 DE=-5.74D-03 OVMax= 1.67D-01

 Cycle   3  Pass 0  IDiag  1:
 E= -165.218234926004     Delta-E=       -0.026168549788 Rises=F Damp=F
 DIIS: error= 1.91D-02 at cycle   3 NSaved=   3.
 NSaved= 3 IEnMin= 3 EnMin= -165.218234926004     IErMin= 2 ErrMin= 1.73D-02
 ErrMax= 1.91D-02 EMaxC= 1.00D-01 BMatC= 4.42D-02 BMatP= 5.24D-02
 IDIUse=3 WtCom= 8.09D-01 WtEn= 1.91D-01
 Coeff-Com:  0.122D+00 0.451D+00 0.428D+00
 Coeff-En:   0.000D+00 0.000D+00 0.100D+01
 Coeff:      0.984D-01 0.365D+00 0.537D+00
 Gap=     0.147 Goal=   None    Shift=    0.000
 Gap=     0.257 Goal=   None    Shift=    0.000
 RMSDP=1.76D-03 MaxDP=2.65D-02 DE=-2.62D-02 OVMax= 6.27D-02

 Cycle   4  Pass 0  IDiag  1:
 E= -165.222746868393     Delta-E=       -0.004511942390 Rises=F Damp=F
 DIIS: error= 1.47D-02 at cycle   4 NSaved=   4.
 NSaved= 4 IEnMin= 4 EnMin= -165.222746868393     IErMin= 4 ErrMin= 1.47D-02
 ErrMax= 1.47D-02 EMaxC= 1.00D-01 BMatC= 2.41D-02 BMatP= 4.42D-02
 IDIUse=3 WtCom= 8.53D-01 WtEn= 1.47D-01
 Coeff-Com:  0.330D-01 0.572D-01 0.406D+00 0.504D+00
 Coeff-En:   0.000D+00 0.000D+00 0.386D+00 0.614D+00
 Coeff:      0.281D-01 0.488D-01 0.403D+00 0.520D+00
 Gap=     0.149 Goal=   None    Shift=    0.000
 Gap=     0.252 Goal=   None    Shift=    0.000
 RMSDP=9.02D-04 MaxDP=1.40D-02 DE=-4.51D-03 OVMax= 3.48D-02

 Cycle   5  Pass 0  IDiag  1:
 E= -165.227869664791     Delta-E=       -0.005122796398 Rises=F Damp=F
 DIIS: error= 1.58D-03 at cycle   5 NSaved=   5.
 NSaved= 5 IEnMin= 5 EnMin= -165.227869664791     IErMin= 5 ErrMin= 1.58D-03
 ErrMax= 1.58D-03 EMaxC= 1.00D-01 BMatC= 5.92D-04 BMatP= 2.41D-02
 IDIUse=3 WtCom= 9.84D-01 WtEn= 1.58D-02
 Coeff-Com:  0.353D-02-0.115D-01 0.162D+00 0.265D+00 0.580D+00
 Coeff-En:   0.000D+00 0.000D+00 0.000D+00 0.000D+00 0.100D+01
 Coeff:      0.348D-02-0.113D-01 0.160D+00 0.261D+00 0.587D+00
 Gap=     0.152 Goal=   None    Shift=    0.000
 Gap=     0.252 Goal=   None    Shift=    0.000
 RMSDP=3.04D-04 MaxDP=5.20D-03 DE=-5.12D-03 OVMax= 1.65D-02

 Cycle   6  Pass 0  IDiag  1:
 E= -165.228041336308     Delta-E=       -0.000171671517 Rises=F Damp=F
 DIIS: error= 9.33D-04 at cycle   6 NSaved=   6.
 NSaved= 6 IEnMin= 6 EnMin= -165.228041336308     IErMin= 6 ErrMin= 9.33D-04
 ErrMax= 9.33D-04 EMaxC= 1.00D-01 BMatC= 1.23D-04 BMatP= 5.92D-04
 IDIUse=3 WtCom= 9.91D-01 WtEn= 9.33D-03
 Coeff-Com: -0.864D-02-0.111D-01-0.549D-01-0.726D-01 0.260D+00 0.887D+00
 Coeff-En:   0.000D+00 0.000D+00 0.000D+00 0.000D+00 0.000D+00 0.100D+01
 Coeff:     -0.856D-02-0.110D-01-0.544D-01-0.719D-01 0.258D+00 0.888D+00
 Gap=     0.152 Goal=   None    Shift=    0.000
 Gap=     0.253 Goal=   None    Shift=    0.000
 RMSDP=1.38D-04 MaxDP=2.32D-03 DE=-1.72D-04 OVMax= 4.82D-03

 Cycle   7  Pass 0  IDiag  1:
 E= -165.228103096572     Delta-E=       -0.000061760264 Rises=F Damp=F
 DIIS: error= 2.62D-04 at cycle   7 NSaved=   7.
 NSaved= 7 IEnMin= 7 EnMin= -165.228103096572     IErMin= 7 ErrMin= 2.62D-04
 ErrMax= 2.62D-04 EMaxC= 1.00D-01 BMatC= 8.77D-06 BMatP= 1.23D-04
 IDIUse=3 WtCom= 9.97D-01 WtEn= 2.62D-03
 Coeff-Com: -0.175D-02 0.248D-02-0.341D-01-0.522D-01-0.123D+00 0.824D-01
 Coeff-Com:  0.113D+01
 Coeff-En:   0.000D+00 0.000D+00 0.000D+00 0.000D+00 0.000D+00 0.000D+00
 Coeff-En:   0.100D+01
 Coeff:     -0.175D-02 0.247D-02-0.340D-01-0.521D-01-0.123D+00 0.822D-01
 Coeff:      0.113D+01
 Gap=     0.153 Goal=   None    Shift=    0.000
 Gap=     0.254 Goal=   None    Shift=    0.000
 RMSDP=7.77D-05 MaxDP=1.48D-03 DE=-6.18D-05 OVMax= 3.78D-03

 Cycle   8  Pass 0  IDiag  1:
 E= -165.228113110546     Delta-E=       -0.000010013974 Rises=F Damp=F
 DIIS: error= 1.08D-04 at cycle   8 NSaved=   8.
 NSaved= 8 IEnMin= 8 EnMin= -165.228113110546     IErMin= 8 ErrMin= 1.08D-04
 ErrMax= 1.08D-04 EMaxC= 1.00D-01 BMatC= 6.51D-07 BMatP= 8.77D-06
 IDIUse=3 WtCom= 9.99D-01 WtEn= 1.08D-03
 Coeff-Com:  0.814D-03 0.199D-03 0.180D-02 0.125D-02-0.277D-01-0.684D-01
 Coeff-Com:  0.708D-01 0.102D+01
 Coeff-En:   0.000D+00 0.000D+00 0.000D+00 0.000D+00 0.000D+00 0.000D+00
 Coeff-En:   0.000D+00 0.100D+01
 Coeff:      0.813D-03 0.198D-03 0.179D-02 0.125D-02-0.277D-01-0.684D-01
 Coeff:      0.707D-01 0.102D+01
 Gap=     0.153 Goal=   None    Shift=    0.000
 Gap=     0.254 Goal=   None    Shift=    0.000
 RMSDP=1.78D-05 MaxDP=2.37D-04 DE=-1.00D-05 OVMax= 8.13D-04

 Cycle   9  Pass 0  IDiag  1:
 E= -165.228113858329     Delta-E=       -0.000000747784 Rises=F Damp=F
 DIIS: error= 3.96D-05 at cycle   9 NSaved=   9.
 NSaved= 9 IEnMin= 9 EnMin= -165.228113858329     IErMin= 9 ErrMin= 3.96D-05
 ErrMax= 3.96D-05 EMaxC= 1.00D-01 BMatC= 9.05D-08 BMatP= 6.51D-07
 IDIUse=1 WtCom= 1.00D+00 WtEn= 0.00D+00
 Coeff-Com:  0.228D-03-0.269D-03 0.418D-02 0.637D-02 0.150D-01-0.143D-01
 Coeff-Com: -0.129D+00 0.204D-02 0.112D+01
 Coeff:      0.228D-03-0.269D-03 0.418D-02 0.637D-02 0.150D-01-0.143D-01
 Coeff:     -0.129D+00 0.204D-02 0.112D+01
 Gap=     0.153 Goal=   None    Shift=    0.000
 Gap=     0.254 Goal=   None    Shift=    0.000
 RMSDP=7.50D-06 MaxDP=1.22D-04 DE=-7.48D-07 OVMax= 4.00D-04

 Initial convergence to 1.0D-05 achieved.  Increase integral accuracy.
 Cycle  10  Pass 1  IDiag  1:
 E= -165.228078445509     Delta-E=        0.000035412821 Rises=F Damp=F
 DIIS: error= 2.30D-04 at cycle   1 NSaved=   1.
 NSaved= 1 IEnMin= 1 EnMin= -165.228078445509     IErMin= 1 ErrMin= 2.30D-04
 ErrMax= 2.30D-04 EMaxC= 1.00D-01 BMatC= 1.98D-05 BMatP= 1.98D-05
 IDIUse=3 WtCom= 9.98D-01 WtEn= 2.30D-03
 Coeff-Com:  0.100D+01
 Coeff-En:   0.100D+01
 Coeff:      0.100D+01
 Gap=     0.153 Goal=   None    Shift=    0.000
 Gap=     0.254 Goal=   None    Shift=    0.000
 RMSDP=7.50D-06 MaxDP=1.22D-04 DE= 3.54D-05 OVMax= 6.10D-04

 Cycle  11  Pass 1  IDiag  1:
 E= -165.228082353891     Delta-E=       -0.000003908382 Rises=F Damp=F
 DIIS: error= 2.84D-05 at cycle   2 NSaved=   2.
 NSaved= 2 IEnMin= 2 EnMin= -165.228082353891     IErMin= 2 ErrMin= 2.84D-05
 ErrMax= 2.84D-05 EMaxC= 1.00D-01 BMatC= 1.59D-07 BMatP= 1.98D-05
 IDIUse=1 WtCom= 1.00D+00 WtEn= 0.00D+00
 Coeff-Com:  0.796D-02 0.992D+00
 Coeff:      0.796D-02 0.992D+00
 Gap=     0.153 Goal=   None    Shift=    0.000
 Gap=     0.254 Goal=   None    Shift=    0.000
 RMSDP=8.53D-06 MaxDP=1.26D-04 DE=-3.91D-06 OVMax= 2.74D-04

 Cycle  12  Pass 1  IDiag  1:
 E= -165.228082344144     Delta-E=        0.000000009747 Rises=F Damp=F
 DIIS: error= 2.70D-05 at cycle   3 NSaved=   3.
 NSaved= 3 IEnMin= 2 EnMin= -165.228082353891     IErMin= 3 ErrMin= 2.70D-05
 ErrMax= 2.70D-05 EMaxC= 1.00D-01 BMatC= 2.37D-07 BMatP= 1.59D-07
 IDIUse=1 WtCom= 1.00D+00 WtEn= 0.00D+00
 Coeff-Com: -0.271D-02 0.559D+00 0.443D+00
 Coeff:     -0.271D-02 0.559D+00 0.443D+00
 Gap=     0.153 Goal=   None    Shift=    0.000
 Gap=     0.254 Goal=   None    Shift=    0.000
 RMSDP=4.63D-06 MaxDP=7.91D-05 DE= 9.75D-09 OVMax= 2.33D-04

 Cycle  13  Pass 1  IDiag  1:
 E= -165.228082397776     Delta-E=       -0.000000053632 Rises=F Damp=F
 DIIS: error= 1.37D-05 at cycle   4 NSaved=   4.
 NSaved= 4 IEnMin= 4 EnMin= -165.228082397776     IErMin= 4 ErrMin= 1.37D-05
 ErrMax= 1.37D-05 EMaxC= 1.00D-01 BMatC= 2.34D-08 BMatP= 1.59D-07
 IDIUse=1 WtCom= 1.00D+00 WtEn= 0.00D+00
 Coeff-Com: -0.311D-02 0.128D+00 0.241D+00 0.634D+00
 Coeff:     -0.311D-02 0.128D+00 0.241D+00 0.634D+00
 Gap=     0.153 Goal=   None    Shift=    0.000
 Gap=     0.254 Goal=   None    Shift=    0.000
 RMSDP=1.20D-06 MaxDP=1.65D-05 DE=-5.36D-08 OVMax= 5.32D-05

 Cycle  14  Pass 1  IDiag  1:
 E= -165.228082401203     Delta-E=       -0.000000003427 Rises=F Damp=F
 DIIS: error= 1.04D-05 at cycle   5 NSaved=   5.
 NSaved= 5 IEnMin= 5 EnMin= -165.228082401203     IErMin= 5 ErrMin= 1.04D-05
 ErrMax= 1.04D-05 EMaxC= 1.00D-01 BMatC= 1.11D-08 BMatP= 2.34D-08
 IDIUse=1 WtCom= 1.00D+00 WtEn= 0.00D+00
 Coeff-Com: -0.185D-02 0.841D-02 0.117D+00 0.447D+00 0.430D+00
 Coeff:     -0.185D-02 0.841D-02 0.117D+00 0.447D+00 0.430D+00
 Gap=     0.153 Goal=   None    Shift=    0.000
 Gap=     0.254 Goal=   None    Shift=    0.000
 RMSDP=6.70D-07 MaxDP=7.69D-06 DE=-3.43D-09 OVMax= 2.95D-05

 Cycle  15  Pass 1  IDiag  1:
 E= -165.228082403371     Delta-E=       -0.000000002167 Rises=F Damp=F
 DIIS: error= 4.95D-06 at cycle   6 NSaved=   6.
 NSaved= 6 IEnMin= 6 EnMin= -165.228082403371     IErMin= 6 ErrMin= 4.95D-06
 ErrMax= 4.95D-06 EMaxC= 1.00D-01 BMatC= 1.78D-09 BMatP= 1.11D-08
 IDIUse=1 WtCom= 1.00D+00 WtEn= 0.00D+00
 Coeff-Com: -0.784D-03-0.150D-01 0.349D-01 0.165D+00 0.297D+00 0.519D+00
 Coeff:     -0.784D-03-0.150D-01 0.349D-01 0.165D+00 0.297D+00 0.519D+00
 Gap=     0.153 Goal=   None    Shift=    0.000
 Gap=     0.254 Goal=   None    Shift=    0.000
 RMSDP=3.25D-07 MaxDP=6.47D-06 DE=-2.17D-09 OVMax= 1.51D-05

 Cycle  16  Pass 1  IDiag  1:
 E= -165.228082403895     Delta-E=       -0.000000000525 Rises=F Damp=F
 DIIS: error= 1.46D-06 at cycle   7 NSaved=   7.
 NSaved= 7 IEnMin= 7 EnMin= -165.228082403895     IErMin= 7 ErrMin= 1.46D-06
 ErrMax= 1.46D-06 EMaxC= 1.00D-01 BMatC= 2.15D-10 BMatP= 1.78D-09
 IDIUse=1 WtCom= 1.00D+00 WtEn= 0.00D+00
 Coeff-Com:  0.401D-03-0.118D-01-0.257D-01-0.915D-01-0.388D-01 0.204D+00
 Coeff-Com:  0.964D+00
 Coeff:      0.401D-03-0.118D-01-0.257D-01-0.915D-01-0.388D-01 0.204D+00
 Coeff:      0.964D+00
 Gap=     0.153 Goal=   None    Shift=    0.000
 Gap=     0.254 Goal=   None    Shift=    0.000
 RMSDP=2.28D-07 MaxDP=3.60D-06 DE=-5.25D-10 OVMax= 1.10D-05

 Cycle  17  Pass 1  IDiag  1:
 E= -165.228082404087     Delta-E=       -0.000000000192 Rises=F Damp=F
 DIIS: error= 5.33D-07 at cycle   8 NSaved=   8.
 NSaved= 8 IEnMin= 8 EnMin= -165.228082404087     IErMin= 8 ErrMin= 5.33D-07
 ErrMax= 5.33D-07 EMaxC= 1.00D-01 BMatC= 3.65D-11 BMatP= 2.15D-10
 IDIUse=1 WtCom= 1.00D+00 WtEn= 0.00D+00
 Coeff-Com:  0.308D-03 0.329D-02-0.137D-01-0.630D-01-0.111D+00-0.140D+00
 Coeff-Com:  0.150D+00 0.117D+01
 Coeff:      0.308D-03 0.329D-02-0.137D-01-0.630D-01-0.111D+00-0.140D+00
 Coeff:      0.150D+00 0.117D+01
 Gap=     0.153 Goal=   None    Shift=    0.000
 Gap=     0.254 Goal=   None    Shift=    0.000
 RMSDP=1.53D-07 MaxDP=2.87D-06 DE=-1.92D-10 OVMax= 8.67D-06

 Cycle  18  Pass 1  IDiag  1:
 E= -165.228082404140     Delta-E=       -0.000000000053 Rises=F Damp=F
 DIIS: error= 1.74D-07 at cycle   9 NSaved=   9.
 NSaved= 9 IEnMin= 9 EnMin= -165.228082404140     IErMin= 9 ErrMin= 1.74D-07
 ErrMax= 1.74D-07 EMaxC= 1.00D-01 BMatC= 3.30D-12 BMatP= 3.65D-11
 IDIUse=1 WtCom= 1.00D+00 WtEn= 0.00D+00
 Coeff-Com: -0.178D-04 0.142D-02-0.646D-04 0.655D-02-0.275D-02-0.307D-01
 Coeff-Com: -0.893D-01 0.848D-01 0.103D+01
 Coeff:     -0.178D-04 0.142D-02-0.646D-04 0.655D-02-0.275D-02-0.307D-01
 Coeff:     -0.893D-01 0.848D-01 0.103D+01
 Gap=     0.153 Goal=   None    Shift=    0.000
 Gap=     0.254 Goal=   None    Shift=    0.000
 RMSDP=3.45D-08 MaxDP=5.09D-07 DE=-5.25D-11 OVMax= 1.50D-06

 Cycle  19  Pass 1  IDiag  1:
 E= -165.228082404144     Delta-E=       -0.000000000004 Rises=F Damp=F
 DIIS: error= 7.80D-08 at cycle  10 NSaved=  10.
 NSaved=10 IEnMin=10 EnMin= -165.228082404144     IErMin=10 ErrMin= 7.80D-08
 ErrMax= 7.80D-08 EMaxC= 1.00D-01 BMatC= 5.67D-13 BMatP= 3.30D-12
 IDIUse=1 WtCom= 1.00D+00 WtEn= 0.00D+00
 Coeff-Com: -0.348D-04-0.305D-03 0.738D-03 0.812D-02 0.127D-01 0.148D-01
 Coeff-Com: -0.118D-01-0.132D+00-0.768D-01 0.118D+01
 Coeff:     -0.348D-04-0.305D-03 0.738D-03 0.812D-02 0.127D-01 0.148D-01
 Coeff:     -0.118D-01-0.132D+00-0.768D-01 0.118D+01
 Gap=     0.153 Goal=   None    Shift=    0.000
 Gap=     0.254 Goal=   None    Shift=    0.000
 RMSDP=1.69D-08 MaxDP=2.71D-07 DE=-3.84D-12 OVMax= 7.72D-07

 Cycle  20  Pass 1  IDiag  1:
 E= -165.228082404145     Delta-E=       -0.000000000001 Rises=F Damp=F
 DIIS: error= 3.10D-08 at cycle  11 NSaved=  11.
 NSaved=11 IEnMin=11 EnMin= -165.228082404145     IErMin=11 ErrMin= 3.10D-08
 ErrMax= 3.10D-08 EMaxC= 1.00D-01 BMatC= 8.90D-14 BMatP= 5.67D-13
 IDIUse=1 WtCom= 1.00D+00 WtEn= 0.00D+00
 Coeff-Com:  0.235D-06-0.150D-03-0.247D-03-0.168D-03-0.142D-03 0.478D-02
 Coeff-Com:  0.153D-01-0.202D-01-0.157D+00 0.583D-01 0.110D+01
 Coeff:      0.235D-06-0.150D-03-0.247D-03-0.168D-03-0.142D-03 0.478D-02
 Coeff:      0.153D-01-0.202D-01-0.157D+00 0.583D-01 0.110D+01
 Gap=     0.153 Goal=   None    Shift=    0.000
 Gap=     0.254 Goal=   None    Shift=    0.000
 RMSDP=6.87D-09 MaxDP=1.37D-07 DE=-7.39D-13 OVMax= 3.16D-07

 SCF Done:  E(UM06) =  -165.228082404     A.U. after   20 cycles
             Convg  =    0.6872D-08             -V/T =  2.0022
 <Sx>= 0.0000 <Sy>= 0.0000 <Sz>= 0.5000 <S**2>= 0.7653 S= 0.5076
 <L.S>=  0.00000000000    
 KE= 1.648687773724D+02 PE=-5.199595085230D+02 EE= 1.231608199569D+02
 Annihilation of the first spin contaminant:
 S**2 before annihilation     0.7653,   after     0.7501
 Leave Link  502 at Fri Apr 25 17:09:43 2014, MaxMem=   65536000 cpu:      17.3
 (Enter /apps/gaussian/g09/l801.exe)
 Range of M.O.s used for correlation:     1    66
 NBasis=    66 NAE=    12 NBE=    11 NFC=     0 NFV=     0
 NROrb=     66 NOA=    12 NOB=    11 NVA=    54 NVB=    55
 Leave Link  801 at Fri Apr 25 17:09:43 2014, MaxMem=   65536000 cpu:       0.1
 (Enter /apps/gaussian/g09/l1101.exe)
 Using compressed storage, NAtomX=     5.
 Will process   6 centers per pass.
 Leave Link 1101 at Fri Apr 25 17:09:43 2014, MaxMem=   65536000 cpu:       1.4
 (Enter /apps/gaussian/g09/l1102.exe)
 Symmetrizing basis deriv contribution to polar:
 IMax=3 JMax=2 DiffMx= 0.00D+00
 Leave Link 1102 at Fri Apr 25 17:09:43 2014, MaxMem=   65536000 cpu:       0.2
 (Enter /apps/gaussian/g09/l1110.exe)
 Forming Gx(P) for the SCF density, NAtomX=     5.
 Integral derivatives from FoFDir/FoFCou, PRISM(SPDF).
 Do as many integral derivatives as possible in FoFDir.
 G2DrvN: MDV=      65535856.
 G2DrvN: will do     6 centers at a time, making    1 passes doing MaxLOS=2.
 Calling FoFCou, ICntrl=  3107 FMM=F I1Cent=   0 AccDes= 0.00D+00.
 FoFCou: FMM=F IPFlag=           0 FMFlag=      100000 FMFlg1=           0
         NFxFlg=           0 DoJE=F BraDBF=F KetDBF=F FulRan=T
         Omega=  0.000000  0.000000  1.000000  0.000000  0.000000 ICntrl=    3107 IOpCl=  1
         NMat0=    1 NMatS0=    1 NMatT0=    0 NMatD0=    1 NMtDS0=    0 NMtDT0=    0
         I1Cent=           0 NGrid=           0.
 Symmetry not used in FoFCou.
 FoFDir/FoFCou used for L=0 through L=2.
 End of G2Drv Frequency-dependent properties file   721 does not exist.
 End of G2Drv Frequency-dependent properties file   722 does not exist.
 Leave Link 1110 at Fri Apr 25 17:09:45 2014, MaxMem=   65536000 cpu:      18.3
 (Enter /apps/gaussian/g09/l1002.exe)
 Minotr:  UHF open shell wavefunction.
          IDoAtm=11111
          Direct CPHF calculation.
          Differentiating once with respect to electric field.
                with respect to dipole field.
          Differentiating once with respect to nuclear coordinates.
          Requested convergence is 1.0D-08 RMS, and 1.0D-07 maximum.
          Secondary convergence is 1.0D-12 RMS, and 1.0D-12 maximum.
          NewPWx=T KeepS1=F KeepF1=F KeepIn=T MapXYZ=F SortEE=F KeepMc=T.
          MDV=      65535946 using IRadAn=       2.
 Generate precomputed XC quadrature information.
          Keep R1 and R2 ints in memory in canonical form, NReq=6656460.
 Symmetry not used in FoFDir.
 MinBra= 0 MaxBra= 2 Meth= 1.
 IRaf=       0 NMat=   1 IRICut=       1 DoRegI=T DoRafI=F ISym2E= 0 JSym2E=0.
          Solving linear equations simultaneously, MaxMat=       0.
          There are    18 degrees of freedom in the 1st order CPHF.  IDoFFX=5.
     15 vectors produced by pass  0 Test12= 6.96D-15 5.56D-09 XBig12= 2.35D+02 9.60D+00.
 AX will form    15 AO Fock derivatives at one time.
     15 vectors produced by pass  1 Test12= 6.96D-15 5.56D-09 XBig12= 6.31D+01 2.52D+00.
     15 vectors produced by pass  2 Test12= 6.96D-15 5.56D-09 XBig12= 1.44D+00 2.81D-01.
     15 vectors produced by pass  3 Test12= 6.96D-15 5.56D-09 XBig12= 4.00D-02 3.99D-02.
     15 vectors produced by pass  4 Test12= 6.96D-15 5.56D-09 XBig12= 6.55D-04 5.18D-03.
     15 vectors produced by pass  5 Test12= 6.96D-15 5.56D-09 XBig12= 6.96D-06 5.63D-04.
     14 vectors produced by pass  6 Test12= 6.96D-15 5.56D-09 XBig12= 3.43D-08 3.46D-05.
      6 vectors produced by pass  7 Test12= 6.96D-15 5.56D-09 XBig12= 1.61D-10 2.28D-06.
      2 vectors produced by pass  8 Test12= 6.96D-15 5.56D-09 XBig12= 5.59D-13 1.15D-07.
      1 vectors produced by pass  9 Test12= 6.96D-15 5.56D-09 XBig12= 2.41D-15 9.20D-09.
 Inverted reduced A of dimension   113 with in-core refinement.
 FullF1:  Do perturbations    1 to     3.
 Isotropic polarizability for W=    0.000000       31.26 Bohr**3.
 End of Minotr Frequency-dependent properties file   721 does not exist.
 End of Minotr Frequency-dependent properties file   722 does not exist.
 Leave Link 1002 at Fri Apr 25 17:09:47 2014, MaxMem=   65536000 cpu:      25.6
 (Enter /apps/gaussian/g09/l601.exe)
 Copying SCF densities to generalized density rwf, IOpCl= 1 IROHF=0.

 **********************************************************************

            Population analysis using the SCF density.

 **********************************************************************

 Orbital symmetries:
 Alpha Orbitals:
       Occupied  (A) (A) (A) (A) (A) (A) (A) (A) (A) (A) (A) (A)
       Virtual   (A) (A) (A) (A) (A) (A) (A) (A) (A) (A) (A) (A)
                 (A) (A) (A) (A) (A) (A) (A) (A) (A) (A) (A) (A)
                 (A) (A) (A) (A) (A) (A) (A) (A) (A) (A) (A) (A)
                 (A) (A) (A) (A) (A) (A) (A) (A) (A) (A) (A) (A)
                 (A) (A) (A) (A) (A) (A)
 Beta  Orbitals:
       Occupied  (A) (A) (A) (A) (A) (A) (A) (A) (A) (A) (A)
       Virtual   (A) (A) (A) (A) (A) (A) (A) (A) (A) (A) (A) (A)
                 (A) (A) (A) (A) (A) (A) (A) (A) (A) (A) (A) (A)
                 (A) (A) (A) (A) (A) (A) (A) (A) (A) (A) (A) (A)
                 (A) (A) (A) (A) (A) (A) (A) (A) (A) (A) (A) (A)
                 (A) (A) (A) (A) (A) (A) (A)
 The electronic state is 2-A.
 Alpha  occ. eigenvalues --  -14.54331 -14.47383 -14.45805  -1.16054  -1.00050
 Alpha  occ. eigenvalues --   -0.66066  -0.56278  -0.53056  -0.47395  -0.41432
 Alpha  occ. eigenvalues --   -0.32438  -0.18338
 Alpha virt. eigenvalues --   -0.03086   0.01284   0.04123   0.21702   0.26509
 Alpha virt. eigenvalues --    0.35790   0.42194   0.46496   0.50575   0.54158
 Alpha virt. eigenvalues --    0.60035   0.64962   0.68234   0.69099   0.73736
 Alpha virt. eigenvalues --    0.78954   0.89169   1.00349   1.13850   1.23776
 Alpha virt. eigenvalues --    1.38557   1.40379   1.44363   1.55188   1.66483
 Alpha virt. eigenvalues --    1.68256   1.71912   1.84364   1.90470   2.07532
 Alpha virt. eigenvalues --    2.10006   2.21831   2.23049   2.36894   2.38817
 Alpha virt. eigenvalues --    2.47826   2.56503   2.65251   2.84908   3.06242
 Alpha virt. eigenvalues --    3.15979   3.46512   3.53147   3.63381   3.86766
 Alpha virt. eigenvalues --    3.90079   3.91169   4.11568   4.27596   4.34871
 Alpha virt. eigenvalues --    5.05501  34.98220  35.43992  36.11770
  Beta  occ. eigenvalues --  -14.54172 -14.47276 -14.45121  -1.14829  -0.98914
  Beta  occ. eigenvalues --   -0.65721  -0.54116  -0.52517  -0.45387  -0.38618
  Beta  occ. eigenvalues --   -0.31710
  Beta virt. eigenvalues --   -0.06319  -0.01291   0.02687   0.05821   0.22247
  Beta virt. eigenvalues --    0.33169   0.35908   0.42151   0.46451   0.50565
  Beta virt. eigenvalues --    0.55014   0.60206   0.65545   0.68879   0.69227
  Beta virt. eigenvalues --    0.73679   0.79131   0.89766   1.00578   1.13677
  Beta virt. eigenvalues --    1.24455   1.40026   1.41672   1.46999   1.56987
  Beta virt. eigenvalues --    1.67399   1.69282   1.72795   1.84934   1.92135
  Beta virt. eigenvalues --    2.09166   2.12052   2.22994   2.25858   2.38087
  Beta virt. eigenvalues --    2.39503   2.48056   2.60467   2.65936   2.85161
  Beta virt. eigenvalues --    3.07085   3.17370   3.46197   3.53875   3.65467
  Beta virt. eigenvalues --    3.86926   3.91715   3.93353   4.11226   4.27107
  Beta virt. eigenvalues --    4.35550   5.05648  34.98859  35.44243  36.12430
     Alpha Molecular Orbital Coefficients:
                           1         2         3         4         5
                           O         O         O         O         O
     Eigenvalues --   -14.54331 -14.47383 -14.45805  -1.16054  -1.00050
   1 1   N  1S          0.55746  -0.00168  -0.00344  -0.10384  -0.00093
   2        2S          0.46468  -0.00116  -0.00225  -0.16115  -0.00204
   3        2PX        -0.00038  -0.00074   0.00104   0.02641  -0.17197
   4        2PY         0.00042   0.00002   0.00016   0.01738  -0.01418
   5        2PZ        -0.00012  -0.00006   0.00003  -0.00194  -0.00636
   6        3S          0.01804  -0.00084  -0.00266   0.45615   0.01078
   7        3PX         0.00243   0.00264  -0.00555   0.02391  -0.23117
   8        3PY         0.00089  -0.00007  -0.00091   0.02223  -0.01804
   9        3PZ        -0.00005   0.00020  -0.00013  -0.00308  -0.00861
  10        4S         -0.00428   0.00223   0.00342   0.21143   0.01421
  11        4PX         0.00071  -0.00735   0.00745  -0.00944  -0.05697
  12        4PY        -0.00039   0.00010   0.00074   0.00682  -0.00780
  13        4PZ         0.00003  -0.00027   0.00033  -0.00062  -0.00118
  14        5D 0       -0.00220   0.00065   0.00133  -0.01249  -0.00165
  15        5D+1        0.00035  -0.00028  -0.00007   0.00182   0.00080
  16        5D-1        0.00002   0.00003  -0.00002  -0.00046  -0.00023
  17        5D+2        0.00368  -0.00118  -0.00213   0.01905   0.00312
  18        5D-2        0.00071   0.00022  -0.00093   0.00350  -0.00399
  19 2   N  1S          0.00323  -0.00062   0.55737  -0.06568   0.06697
  20        2S          0.00342  -0.00050   0.46518  -0.10143   0.10457
  21        2PX        -0.00080  -0.00008  -0.00176  -0.07878   0.06935
  22        2PY        -0.00019   0.00004  -0.00031  -0.01447   0.01665
  23        2PZ        -0.00000  -0.00002  -0.00004  -0.00168   0.00086
  24        3S         -0.00294  -0.00007   0.01687   0.28432  -0.29636
  25        3PX         0.00524   0.00014  -0.00392  -0.10665   0.09216
  26        3PY         0.00117  -0.00017  -0.00077  -0.01863   0.02308
  27        3PZ         0.00005   0.00009  -0.00007  -0.00237   0.00089
  28        4S         -0.00079   0.00461  -0.01156   0.11423  -0.15070
  29        4PX        -0.00039  -0.00149   0.00390  -0.02179   0.02780
  30        4PY         0.00009  -0.00066   0.00099  -0.00586   0.00651
  31        4PZ        -0.00001  -0.00007   0.00001  -0.00024   0.00002
  32        5D 0        0.00151   0.00003  -0.00120  -0.00882   0.00833
  33        5D+1       -0.00004  -0.00005   0.00009   0.00068  -0.00018
  34        5D-1       -0.00001  -0.00002   0.00001  -0.00012   0.00014
  35        5D+2       -0.00233  -0.00017   0.00193   0.01318  -0.01112
  36        5D-2       -0.00115   0.00018   0.00073   0.00480  -0.00651
  37 3   N  1S          0.00162   0.55766   0.00062  -0.04981  -0.08556
  38        2S          0.00167   0.46503   0.00054  -0.07689  -0.13318
  39        2PX         0.00087   0.00108   0.00013   0.04794   0.05199
  40        2PY        -0.00000  -0.00041   0.00006  -0.00684  -0.01896
  41        2PZ        -0.00000   0.00093  -0.00002   0.01079   0.02261
  42        3S         -0.00090   0.01663  -0.00002   0.21508   0.37558
  43        3PX        -0.00342   0.00052  -0.00030   0.07123   0.08236
  44        3PY        -0.00013  -0.00108  -0.00021  -0.00688  -0.02513
  45        3PZ         0.00006   0.00093   0.00007   0.01537   0.03383
  46        4S          0.00113  -0.01220   0.00363   0.08655   0.22554
  47        4PX         0.00117  -0.00317   0.00173   0.00235   0.02311
  48        4PY         0.00017   0.00005  -0.00017  -0.00587  -0.00706
  49        4PZ         0.00014  -0.00097   0.00008   0.00708   0.01549
  50        5D 0        0.00089  -0.00051   0.00005  -0.00546  -0.00786
  51        5D+1       -0.00055  -0.00022   0.00003   0.00215   0.00312
  52        5D-1       -0.00014  -0.00057  -0.00001  -0.00160  -0.00365
  53        5D+2       -0.00170   0.00069  -0.00014   0.00853   0.01117
  54        5D-2        0.00059   0.00048  -0.00019  -0.00090  -0.00352
  55 4   H  1S         -0.00028  -0.00011  -0.00003   0.02379   0.05835
  56        2S         -0.00080  -0.00142   0.00002   0.02119   0.05518
  57        3S          0.00070   0.00132   0.00041  -0.01143  -0.00874
  58        4PX        -0.00018  -0.00085   0.00010   0.00501   0.00912
  59        4PY        -0.00055  -0.00141   0.00000   0.00419   0.00981
  60        4PZ         0.00038   0.00124   0.00001  -0.00300  -0.00764
  61 5   H  1S          0.00011   0.00009   0.00003   0.00511   0.01344
  62        2S         -0.00045   0.00054  -0.00013   0.00822   0.01382
  63        3S          0.00033   0.00039   0.00020  -0.00440  -0.00096
  64        4PX        -0.00011   0.00031  -0.00001   0.00127   0.00157
  65        4PY         0.00013  -0.00020  -0.00001  -0.00180  -0.00399
  66        4PZ         0.00001   0.00001  -0.00000  -0.00056  -0.00093
                           6         7         8         9        10
                           O         O         O         O         O
     Eigenvalues --    -0.66066  -0.56278  -0.53056  -0.47395  -0.41432
   1 1   N  1S          0.04456   0.02471  -0.01310   0.02969  -0.00261
   2        2S          0.07103   0.03996  -0.02105   0.04783  -0.00418
   3        2PX         0.10083   0.00058  -0.02219  -0.11998  -0.00642
   4        2PY        -0.02268   0.19018   0.04212  -0.02282   0.11070
   5        2PZ         0.03957  -0.02170   0.21108   0.01839  -0.03602
   6        3S         -0.21850  -0.12213   0.06465  -0.15041   0.01555
   7        3PX         0.14095  -0.00345  -0.03355  -0.16444  -0.00557
   8        3PY        -0.03601   0.29404   0.06571  -0.03268   0.16778
   9        3PZ         0.06139  -0.03265   0.32498   0.02815  -0.05520
  10        4S         -0.21879  -0.12785   0.06591  -0.18519   0.00611
  11        4PX         0.08067   0.04681  -0.01401  -0.13234  -0.08544
  12        4PY        -0.02323   0.20253   0.04178  -0.03178   0.13409
  13        4PZ         0.03131  -0.02853   0.23195   0.02602  -0.04520
  14        5D 0       -0.00007  -0.00070  -0.00208  -0.00053  -0.00195
  15        5D+1       -0.00536   0.00001   0.00298   0.00242  -0.00998
  16        5D-1        0.00134  -0.00147   0.00597   0.00086  -0.00099
  17        5D+2        0.00192  -0.01016  -0.00145   0.00264  -0.00679
  18        5D-2        0.00579  -0.00439  -0.00024   0.00135   0.03360
  19 2   N  1S         -0.03387  -0.01772   0.01347  -0.07600   0.00460
  20        2S         -0.05370  -0.02851   0.02153  -0.12117   0.00756
  21        2PX         0.00240  -0.00439  -0.02550   0.20366  -0.05520
  22        2PY        -0.01538   0.10737   0.02575   0.04131   0.15154
  23        2PZ         0.01380  -0.01173   0.13065   0.02165  -0.04366
  24        3S          0.15650   0.08521  -0.06332   0.34438  -0.02148
  25        3PX         0.00520  -0.01114  -0.03565   0.27660  -0.07965
  26        3PY        -0.02406   0.16503   0.04031   0.05662   0.22899
  27        3PZ         0.02232  -0.01866   0.20229   0.03241  -0.06582
  28        4S          0.13578   0.04795  -0.08063   0.58561   0.01266
  29        4PX        -0.00167   0.01124  -0.01719   0.13700  -0.07773
  30        4PY        -0.00737   0.08646   0.02329   0.03052   0.16735
  31        4PZ         0.00865  -0.00648   0.10883   0.01942  -0.05098
  32        5D 0       -0.00066  -0.00007  -0.00199   0.01255  -0.00079
  33        5D+1       -0.00489   0.00320  -0.03291  -0.00441   0.00809
  34        5D-1       -0.00099   0.00005  -0.00624  -0.00151   0.00120
  35        5D+2       -0.00186   0.00954   0.00516  -0.02187   0.01135
  36        5D-2        0.00457  -0.02627  -0.00603  -0.00867  -0.02442
  37 3   N  1S         -0.04705  -0.02650   0.02029   0.00126   0.01550
  38        2S         -0.07407  -0.04236   0.03241   0.00197   0.02467
  39        2PX        -0.16728  -0.02549   0.02594   0.06674   0.01012
  40        2PY        -0.05735   0.13178   0.02204  -0.02540  -0.14848
  41        2PZ         0.05819  -0.01751   0.11030   0.00775   0.04112
  42        3S          0.20524   0.12349  -0.09693  -0.00065  -0.06631
  43        3PX        -0.24398  -0.03318   0.03483   0.09999   0.01791
  44        3PY        -0.08217   0.20467   0.03418  -0.04086  -0.22083
  45        3PZ         0.08878  -0.02341   0.17093   0.01188   0.05594
  46        4S          0.26593   0.18858  -0.09653  -0.05042  -0.20434
  47        4PX        -0.09316  -0.01645   0.03096   0.06037  -0.00913
  48        4PY        -0.04159   0.12069   0.02441  -0.02274  -0.18441
  49        4PZ         0.05170  -0.00242   0.11114   0.00180   0.03217
  50        5D 0        0.00927  -0.00070   0.00932  -0.00188   0.00176
  51        5D+1       -0.00707  -0.00448   0.02599   0.00696   0.00007
  52        5D-1       -0.00996   0.00996  -0.00269  -0.00145  -0.01221
  53        5D+2       -0.02074   0.00288   0.00117   0.00601   0.00143
  54        5D-2        0.00558   0.02106   0.00344  -0.00564   0.00732
  55 4   H  1S          0.15215  -0.03674  -0.00029  -0.01352   0.09649
  56        2S          0.17967  -0.05945  -0.00259  -0.01501   0.15899
  57        3S          0.03200  -0.01187  -0.00082  -0.00834   0.05296
  58        4PX         0.00333  -0.00926   0.00344   0.00480   0.01170
  59        4PY         0.01605   0.00301   0.00248  -0.00206   0.00128
  60        4PZ        -0.01111   0.00344   0.00857   0.00033  -0.00678
  61 5   H  1S          0.03498   0.06378  -0.00015  -0.03026  -0.11358
  62        2S          0.04698   0.08902  -0.00432  -0.05043  -0.17905
  63        3S          0.01688   0.03713  -0.00066  -0.02216  -0.12179
  64        4PX         0.00038   0.00536   0.00053  -0.00122  -0.00409
  65        4PY        -0.00796  -0.00713   0.00106   0.00359   0.00762
  66        4PZ        -0.00048  -0.00234   0.00289   0.00094   0.00293
                          11        12        13        14        15
                           O         O         V         V         V
     Eigenvalues --    -0.32438  -0.18338  -0.03086   0.01284   0.04123
   1 1   N  1S         -0.00594  -0.01453   0.00386   0.00065  -0.00845
   2        2S         -0.00979  -0.02366   0.00572   0.00102  -0.01360
   3        2PX        -0.01915  -0.01743  -0.01258  -0.02600  -0.00487
   4        2PY        -0.00546  -0.12337   0.12863   0.11586  -0.04564
   5        2PZ        -0.04128  -0.01199  -0.14713   0.17915   0.00081
   6        3S          0.03394   0.06455   0.00063  -0.00278   0.02500
   7        3PX        -0.02914  -0.02152  -0.03748  -0.04846  -0.03282
   8        3PY        -0.00628  -0.18859   0.19797   0.18055  -0.06971
   9        3PZ        -0.06122  -0.01872  -0.22651   0.27548   0.00115
  10        4S          0.00576   0.16244  -0.19614  -0.03403   0.14213
  11        4PX         0.02069  -0.07201   0.16332  -0.02021   0.25969
  12        4PY        -0.01165  -0.24343   0.29565   0.28164  -0.12588
  13        4PZ        -0.05745  -0.02478  -0.32396   0.44319   0.02071
  14        5D 0       -0.00354   0.00434  -0.00079   0.00105   0.01207
  15        5D+1       -0.04815   0.00343   0.02173  -0.00940   0.00076
  16        5D-1       -0.00452   0.00265   0.00189  -0.00294  -0.00535
  17        5D+2        0.00273  -0.01469   0.00397   0.00074  -0.02240
  18        5D-2       -0.01098   0.03468  -0.01008  -0.00168  -0.01243
  19 2   N  1S         -0.00020   0.00504  -0.00126   0.00102   0.01184
  20        2S         -0.00032   0.00871  -0.00243   0.00167   0.01969
  21        2PX         0.02388  -0.00658   0.01016   0.02170   0.03522
  22        2PY        -0.03747   0.18016  -0.11997  -0.09137   0.04790
  23        2PZ        -0.16757   0.01273   0.14898  -0.15647  -0.00657
  24        3S         -0.00026  -0.03831   0.01215  -0.00738  -0.08308
  25        3PX         0.03411  -0.00960   0.01158   0.02990   0.05094
  26        3PY        -0.05555   0.26343  -0.17274  -0.12971   0.07135
  27        3PZ        -0.25013   0.01760   0.21235  -0.22173  -0.01148
  28        4S         -0.00783   0.05084  -0.11452  -0.02448  -0.23336
  29        4PX         0.03437  -0.05579   0.07524   0.06083   0.11759
  30        4PY        -0.04920   0.33539  -0.26455  -0.23290   0.13900
  31        4PZ        -0.23094   0.02642   0.35185  -0.40305  -0.01257
  32        5D 0        0.00119   0.00114  -0.00083  -0.00021  -0.00130
  33        5D+1        0.02083  -0.00013   0.00534  -0.00971   0.00068
  34        5D-1        0.00416   0.00012   0.00121  -0.00252  -0.00079
  35        5D+2       -0.00291  -0.00091   0.00395   0.00359   0.00176
  36        5D-2        0.00318  -0.00547  -0.00518  -0.00706   0.00267
  37 3   N  1S          0.02636   0.03492   0.03075   0.01669   0.02723
  38        2S          0.04243   0.05610   0.04888   0.02646   0.04293
  39        2PX         0.03249   0.00264   0.08177   0.02976  -0.00914
  40        2PY         0.04791  -0.06828  -0.07124  -0.09902   0.15351
  41        2PZ         0.21674  -0.02149   0.02889  -0.12933  -0.04904
  42        3S         -0.13124  -0.17348  -0.12992  -0.06985  -0.11617
  43        3PX         0.04369  -0.01206   0.11448   0.03465  -0.05162
  44        3PY         0.07152  -0.09569  -0.10001  -0.14096   0.19582
  45        3PZ         0.31722  -0.03668   0.02978  -0.18035  -0.05951
  46        4S         -0.14100  -0.37333  -0.36607  -0.30578  -0.47110
  47        4PX         0.06224   0.01530   0.27778   0.11475   0.21507
  48        4PY         0.08448  -0.15001  -0.15717  -0.25881   0.49808
  49        4PZ         0.35866  -0.03509   0.07376  -0.35965  -0.16741
  50        5D 0        0.01151  -0.00881  -0.00547  -0.00717   0.00142
  51        5D+1        0.01213  -0.00252  -0.01784   0.01828  -0.00543
  52        5D-1       -0.00427   0.00186  -0.00367  -0.00026   0.00024
  53        5D+2        0.00220  -0.00571   0.00074  -0.00377   0.00554
  54        5D-2        0.00011  -0.03066   0.01005   0.00645   0.01163
  55 4   H  1S          0.03255  -0.01569   0.08347   0.00522   0.04670
  56        2S          0.03528  -0.04186   0.16757  -0.00816  -0.03962
  57        3S          0.01891   0.01397   0.37572   0.27836   1.55234
  58        4PX         0.00619   0.00259  -0.00364   0.00085  -0.01959
  59        4PY         0.00821  -0.00504  -0.00540  -0.01697  -0.01460
  60        4PZ         0.01764  -0.00102   0.00303  -0.01365   0.01850
  61 5   H  1S          0.04976   0.16248   0.06516   0.04301  -0.05178
  62        2S          0.06905   0.33083   0.12735   0.06670  -0.10560
  63        3S          0.06562   0.47004   0.33758   0.39555  -0.45044
  64        4PX        -0.00005  -0.00509  -0.00658  -0.00497  -0.00061
  65        4PY         0.00086   0.00261   0.01078   0.01260  -0.00834
  66        4PZ         0.00676   0.00192   0.00803  -0.00247  -0.00283
                          16        17        18        19        20
                           V         V         V         V         V
     Eigenvalues --     0.21702   0.26509   0.35790   0.42194   0.46496
   1 1   N  1S         -0.06884   0.02142  -0.00312   0.00742   0.04463
   2        2S         -0.11209   0.03636  -0.00257   0.01767   0.08450
   3        2PX        -0.08418   0.03998   0.03396   0.14061  -0.07603
   4        2PY         0.04855  -0.06835  -0.03826   0.04904   0.03610
   5        2PZ        -0.02585  -0.00902   0.04281  -0.02086  -0.01809
   6        3S          0.28381  -0.14168  -0.07052  -0.23113  -0.60348
   7        3PX        -0.14056   0.03468   0.10044   0.23280  -0.07890
   8        3PY         0.08090  -0.11706  -0.06974   0.09323   0.11487
   9        3PZ        -0.03238  -0.01933   0.06690  -0.07150  -0.04021
  10        4S          2.50115  -0.56723   0.29801   1.12801  -1.96624
  11        4PX        -0.52654   0.61930  -0.07231   4.56772  -2.01283
  12        4PY         0.27802  -0.15000  -0.24905   0.46179  -0.43654
  13        4PZ        -0.16382   0.05409   0.26669   0.23511   0.02224
  14        5D 0        0.03054  -0.00228   0.00467   0.01243   0.00715
  15        5D+1       -0.00850  -0.00425   0.01422  -0.00391  -0.01010
  16        5D-1        0.00129  -0.00168  -0.02000   0.01034   0.00020
  17        5D+2       -0.05157   0.00558  -0.01667  -0.01856  -0.01490
  18        5D-2       -0.01262  -0.01547  -0.01337   0.00796   0.00996
  19 2   N  1S          0.04127   0.00024   0.01481   0.04644  -0.00206
  20        2S          0.06977   0.00132   0.02623   0.07974   0.00697
  21        2PX         0.14585  -0.01940   0.03959   0.03445   0.06325
  22        2PY        -0.00912   0.00332   0.00359  -0.01093  -0.00087
  23        2PZ         0.01846   0.00296  -0.00107  -0.00353   0.01141
  24        3S         -0.27616  -0.03034  -0.11959  -0.27735  -0.28522
  25        3PX         0.21435  -0.00928   0.07029   0.07230   0.32807
  26        3PY        -0.00641  -0.02672  -0.03188  -0.03034   0.06578
  27        3PZ         0.02474   0.00531   0.03411  -0.02480   0.02723
  28        4S         -0.48024  -0.20807  -0.02629  -4.34401   3.07451
  29        4PX         0.54114  -0.03110   0.08987   2.40280  -2.29307
  30        4PY        -0.08179   0.18188   0.19054   0.61611  -0.50906
  31        4PZ         0.08723  -0.00775  -0.18009   0.05075  -0.06291
  32        5D 0       -0.00069  -0.00208  -0.00150   0.00307   0.01908
  33        5D+1        0.00275   0.00189  -0.00780   0.00714   0.00498
  34        5D-1        0.00125   0.00116  -0.00424   0.00223  -0.00063
  35        5D+2        0.00696  -0.00602  -0.00338   0.00000  -0.02357
  36        5D-2       -0.00632   0.00939   0.00773  -0.00995  -0.03097
  37 3   N  1S          0.04410  -0.01808   0.02813  -0.01365   0.01220
  38        2S          0.07301  -0.02944   0.04978  -0.01606   0.02561
  39        2PX        -0.21332   0.01786   0.02789  -0.07063  -0.09593
  40        2PY        -0.00799   0.05542   0.06610  -0.05213  -0.04164
  41        2PZ         0.00956   0.02362  -0.08168  -0.00203   0.03072
  42        3S         -0.22919   0.08789  -0.20174  -0.16729  -0.18382
  43        3PX        -0.30642  -0.00333   0.00151  -0.31670  -0.39399
  44        3PY         0.00162   0.11022   0.13545  -0.09276  -0.10089
  45        3PZ         0.00998   0.04351  -0.17795  -0.00925   0.08758
  46        4S         -1.21956   0.46679  -0.56140   3.87614  -0.74388
  47        4PX        -1.24073   0.58603   0.62489   2.38194   0.22776
  48        4PY        -0.03354  -0.01075   0.73586  -0.72788   0.29891
  49        4PZ        -0.03224   0.01733  -0.56463   0.54940  -0.21631
  50        5D 0       -0.00672   0.01940  -0.00723   0.00850   0.01321
  51        5D+1       -0.00662   0.00359  -0.00495  -0.01333   0.00072
  52        5D-1        0.00218  -0.00736  -0.01212  -0.00030   0.00845
  53        5D+2        0.02352   0.00107  -0.01475  -0.02780  -0.02538
  54        5D-2        0.01486   0.01054   0.00678   0.01645   0.00380
  55 4   H  1S          0.01417   0.00129   0.13147  -0.03101  -0.01958
  56        2S          0.11565   0.13142   1.96104  -0.87665   0.00075
  57        3S         -0.54137  -0.30529  -0.91244   0.38467   0.09721
  58        4PX        -0.02869  -0.00514   0.03341  -0.01581   0.03600
  59        4PY         0.01955   0.02355  -0.00571  -0.02812   0.00924
  60        4PZ        -0.01077   0.01669  -0.00514   0.01171  -0.01549
  61 5   H  1S         -0.02881  -0.13505   0.02421   0.00184   0.00995
  62        2S         -0.27803  -1.27339   0.22247   0.18905   0.10782
  63        3S          0.26529   1.69014  -0.09556  -0.00723  -0.16051
  64        4PX        -0.01348   0.01433   0.02920   0.04620   0.02587
  65        4PY        -0.00516  -0.00802   0.02379  -0.00600  -0.00264
  66        4PZ        -0.00184  -0.00552  -0.02771   0.02483  -0.00318
                          21        22        23        24        25
                           V         V         V         V         V
     Eigenvalues --     0.50575   0.54158   0.60035   0.64962   0.68234
   1 1   N  1S         -0.00552  -0.00551  -0.01056   0.02986   0.04190
   2        2S         -0.01074  -0.01021  -0.02095   0.05790   0.08074
   3        2PX        -0.02827  -0.00606  -0.03635  -0.02067  -0.08546
   4        2PY        -0.03329  -0.11248  -0.00632  -0.06380   0.09091
   5        2PZ        -0.10815   0.02211   0.04691  -0.01342   0.01190
   6        3S          0.07246   0.06669   0.14408  -0.35888  -0.50856
   7        3PX        -0.05049  -0.01297  -0.10316  -0.26378  -0.39442
   8        3PY        -0.11910  -0.47165  -0.01723  -0.21358   0.33333
   9        3PZ        -0.43735   0.10035   0.17967  -0.05771   0.02848
  10        4S         -0.42170  -0.20761  -0.66546   0.74499   0.52026
  11        4PX        -0.22896   0.30188   1.10491   0.31027   0.92296
  12        4PY         0.10312   0.67080   0.18895   0.22076  -0.82579
  13        4PZ         0.47129  -0.16114  -0.43329   0.17747  -0.11559
  14        5D 0        0.00796   0.01121   0.01196   0.00148  -0.00795
  15        5D+1        0.00147   0.00254   0.06672   0.01279   0.01254
  16        5D-1       -0.00853   0.00668   0.01850  -0.01067   0.00013
  17        5D+2       -0.00055   0.00956  -0.01129   0.00587   0.01179
  18        5D-2       -0.00251  -0.01926   0.00036   0.02749  -0.04672
  19 2   N  1S         -0.00803  -0.00023  -0.01173   0.04742   0.04523
  20        2S         -0.01398  -0.00040  -0.02205   0.09149   0.08914
  21        2PX         0.01473   0.03365   0.01056  -0.11798  -0.10766
  22        2PY        -0.01983  -0.15780   0.02883   0.08536  -0.13344
  23        2PZ        -0.11853   0.03613   0.13605   0.02337  -0.00382
  24        3S          0.04665  -0.01474   0.11889  -0.65275  -0.68375
  25        3PX         0.06477   0.12316   0.06604  -0.38387  -0.27073
  26        3PY        -0.07018  -0.56126   0.10995   0.28113  -0.45408
  27        3PZ        -0.43205   0.12598   0.47683   0.08828  -0.01091
  28        4S          0.37500  -0.18449  -0.68975   0.30687   0.21818
  29        4PX        -0.38590  -0.14982   0.04720   0.41270   0.09510
  30        4PY         0.00504   0.66417  -0.13652  -0.49347   0.98677
  31        4PZ         0.47732  -0.13124  -0.59879  -0.20166   0.04413
  32        5D 0        0.00065  -0.00082  -0.00128   0.00102   0.01241
  33        5D+1        0.03316  -0.00782  -0.02913  -0.00426  -0.00353
  34        5D-1        0.00807  -0.00110  -0.00096  -0.00373   0.00160
  35        5D+2       -0.00373  -0.01319   0.00185  -0.00738  -0.02850
  36        5D-2        0.00718   0.04026  -0.00537  -0.00625   0.00117
  37 3   N  1S         -0.00597   0.00510  -0.01283  -0.01479  -0.00401
  38        2S         -0.01095   0.00997  -0.02237  -0.02767  -0.00701
  39        2PX        -0.02001  -0.01339  -0.04229   0.04462   0.04150
  40        2PY        -0.01420  -0.08045   0.01663  -0.13891   0.06325
  41        2PZ        -0.14524   0.02174  -0.16206   0.00136  -0.03234
  42        3S          0.05327  -0.07787   0.05550   0.24102   0.06354
  43        3PX        -0.02604  -0.00663  -0.10215   0.13428   0.10132
  44        3PY        -0.08505  -0.27855   0.03015  -0.50531   0.20599
  45        3PZ        -0.50237   0.06889  -0.55997  -0.04538  -0.10886
  46        4S          0.06014   0.33476   1.27799  -0.63960   0.52645
  47        4PX        -0.11759   0.08193   0.49551  -0.29467  -0.22191
  48        4PY         0.08012   0.17728  -0.46199   1.17665  -0.23555
  49        4PZ         0.60356   0.03841   1.28252  -0.18272   0.30810
  50        5D 0       -0.01363  -0.00219  -0.01106   0.01767  -0.00207
  51        5D+1       -0.02982   0.00587  -0.03625   0.00410  -0.01480
  52        5D-1       -0.00241   0.00468   0.00136  -0.00242  -0.00208
  53        5D+2        0.01261   0.00240   0.02121  -0.00488  -0.00368
  54        5D-2        0.00045  -0.01731   0.01338  -0.02958   0.01932
  55 4   H  1S          0.01108  -0.02325   0.00699  -0.01147   0.01043
  56        2S         -0.04254  -0.29704  -0.51917   0.35517  -0.02907
  57        3S         -0.17397   0.51624  -0.07576   0.42878  -0.40505
  58        4PX        -0.02923  -0.02364  -0.10163   0.04113  -0.01569
  59        4PY        -0.01715   0.01504  -0.01755   0.08780  -0.03466
  60        4PZ         0.00978  -0.02017   0.03025  -0.03062   0.01674
  61 5   H  1S          0.00358   0.02343  -0.01109   0.02410   0.01738
  62        2S         -0.08515   0.09634  -0.11594  -0.21343  -0.00920
  63        3S         -0.04176  -0.42125   0.17539  -0.31027   0.09674
  64        4PX        -0.00525   0.01402  -0.01250  -0.02109  -0.07308
  65        4PY         0.01461   0.01841  -0.01447   0.05974  -0.02439
  66        4PZ         0.02854   0.01701   0.07899  -0.00710   0.00610
                          26        27        28        29        30
                           V         V         V         V         V
     Eigenvalues --     0.69099   0.73736   0.78954   0.89169   1.00349
   1 1   N  1S          0.00735  -0.02672  -0.04470  -0.01023   0.00583
   2        2S          0.01456  -0.05333  -0.08783  -0.01947   0.00795
   3        2PX        -0.03595   0.00692  -0.17687   0.20181  -0.22008
   4        2PY        -0.08212   0.10960  -0.02759   0.01480   0.01551
   5        2PZ         0.15903   0.10047  -0.04515  -0.01212  -0.02704
   6        3S         -0.11131   0.40953   0.69802   0.06786   0.01870
   7        3PX        -0.17870  -0.03091  -0.58721   0.02726  -0.44656
   8        3PY        -0.28964   0.39660  -0.11577   0.04600   0.10971
   9        3PZ         0.53514   0.34505  -0.15891  -0.09168  -0.08902
  10        4S         -0.19058  -0.51262  -1.93706   0.99111   0.49539
  11        4PX         1.92374   0.04477   2.59091   5.04382   8.05986
  12        4PY         0.99026  -1.41227   0.27095   0.35793   0.08560
  13        4PZ        -1.34554  -0.84786   0.71438   0.52018   0.57702
  14        5D 0        0.00745  -0.01153   0.00219   0.00773  -0.00214
  15        5D+1       -0.01582  -0.00823  -0.00243   0.03993   0.00882
  16        5D-1        0.02156  -0.01895  -0.01214   0.00455   0.02995
  17        5D+2       -0.00883   0.00059  -0.02548   0.00296   0.02010
  18        5D-2       -0.01104   0.00428  -0.00673  -0.11682  -0.01483
  19 2   N  1S          0.01270  -0.01861  -0.00862   0.02953  -0.05246
  20        2S          0.02496  -0.03797  -0.01801   0.05181  -0.10329
  21        2PX        -0.02918   0.05844  -0.06215   0.21008  -0.09799
  22        2PY         0.04530  -0.02538  -0.00723   0.06710   0.00373
  23        2PZ        -0.12867  -0.06189   0.00766   0.00383  -0.00398
  24        3S         -0.20710   0.30368   0.05635  -0.24965   0.78188
  25        3PX        -0.03176   0.12131  -0.22192   0.64005   0.02468
  26        3PY         0.17280  -0.13250  -0.02752   0.14270   0.02343
  27        3PZ        -0.45142  -0.21714   0.04273   0.03500   0.00648
  28        4S         -1.20067  -0.08232  -1.19155  -4.25080  -7.29623
  29        4PX         0.44827  -0.20024   0.40936   1.06111   2.68334
  30        4PY        -0.37846   0.67140   0.11569   0.49085   0.99548
  31        4PZ         1.12860   0.60737  -0.28739  -0.19898  -0.10955
  32        5D 0        0.00853  -0.02246  -0.01068  -0.02342   0.03546
  33        5D+1        0.00160   0.00252  -0.00529  -0.01992  -0.01715
  34        5D-1        0.00577  -0.00292  -0.00678  -0.00483  -0.00264
  35        5D+2       -0.01100   0.01939   0.01433   0.01559  -0.09072
  36        5D-2       -0.00452   0.01736   0.00660   0.06892   0.01937
  37 3   N  1S          0.00118  -0.03000  -0.04095  -0.04763   0.07343
  38        2S          0.00345  -0.05766  -0.08311  -0.08884   0.14717
  39        2PX         0.00786  -0.05679  -0.19024   0.15196  -0.02768
  40        2PY         0.05095  -0.12360   0.04223  -0.01626  -0.03239
  41        2PZ        -0.02088  -0.01673   0.05247   0.04424   0.00148
  42        3S         -0.10337   0.44537   0.68984   0.52514  -1.28458
  43        3PX        -0.02314  -0.07762  -0.42268   0.47053   0.09646
  44        3PY         0.16948  -0.44372   0.24523   0.02088  -0.25864
  45        3PZ        -0.02980  -0.13821   0.16444   0.12888   0.15453
  46        4S          1.76725  -0.86074   0.83654   2.94645   7.86218
  47        4PX         0.68999   0.33267   2.09451   1.02022   2.66249
  48        4PY        -1.01361   1.69240  -0.38648  -0.53310  -0.36464
  49        4PZ         0.75919   0.14461  -0.61522   0.04853   0.49925
  50        5D 0       -0.00223  -0.00040  -0.07225   0.00192   0.00788
  51        5D+1       -0.01528   0.01638   0.03209  -0.02768  -0.04004
  52        5D-1        0.00566  -0.00521   0.01762   0.02593   0.00534
  53        5D+2       -0.01177   0.04264   0.06382  -0.00858   0.06519
  54        5D-2        0.02754  -0.03288  -0.02429   0.09179   0.09572
  55 4   H  1S          0.03994  -0.02260  -0.00076   0.06314   0.07714
  56        2S         -0.51885   0.53512   0.43141  -0.27366  -0.80849
  57        3S         -0.02235   0.58282   0.60964   0.12645  -0.10777
  58        4PX        -0.15897   0.07120  -0.01579  -0.12856  -0.29174
  59        4PY        -0.04414   0.14318   0.07016   0.01331  -0.05536
  60        4PZ         0.00104  -0.03859  -0.15713  -0.09682   0.11868
  61 5   H  1S         -0.00500   0.01682  -0.01949   0.01888   0.04186
  62        2S          0.17830  -0.40809   0.42735   0.14610  -0.33846
  63        3S          0.05613  -0.01256   0.20969  -0.00408   0.02290
  64        4PX         0.03183  -0.07764   0.05677  -0.04412   0.09684
  65        4PY        -0.02531   0.04992   0.00155   0.05313   0.07716
  66        4PZ         0.06578  -0.02266  -0.05824   0.06155   0.15988
                          31        32        33        34        35
                           V         V         V         V         V
     Eigenvalues --     1.13850   1.23776   1.38557   1.40379   1.44363
   1 1   N  1S          0.07943  -0.00764  -0.00173   0.00019   0.00358
   2        2S          0.15406  -0.01462  -0.00406   0.00037   0.00704
   3        2PX        -0.08508   0.01423  -0.07038  -0.03805   0.00295
   4        2PY        -0.05444   0.03330  -0.01704  -0.02413   0.02636
   5        2PZ         0.00341   0.00150   0.00041  -0.00504   0.01082
   6        3S         -1.37297   0.13406  -0.02001  -0.01310  -0.08962
   7        3PX         0.02484   0.03629  -0.30313  -0.14221  -0.08122
   8        3PY        -0.05581   0.08351  -0.06760  -0.03768  -0.01068
   9        3PZ         0.00167   0.04155   0.00400   0.06968   0.00160
  10        4S          7.22229  -0.58617   1.58963   0.67647   0.82908
  11        4PX         0.84336  -1.05576   5.76532   2.98637   3.13908
  12        4PY         0.74137  -0.48064   0.77204   0.40033   0.56205
  13        4PZ        -0.06960  -0.32084   0.20835  -0.28498   0.03324
  14        5D 0       -0.12798  -0.10425  -0.01078  -0.01350   0.05250
  15        5D+1        0.02693  -0.07543   0.00993  -0.36565   0.10947
  16        5D-1       -0.00639   0.03713  -0.02650   0.00838   0.13945
  17        5D+2        0.19334  -0.06179   0.03047   0.03403   0.02665
  18        5D-2        0.04013  -0.02172   0.05904  -0.12565   0.15005
  19 2   N  1S         -0.06753   0.00766  -0.01677  -0.00665  -0.00080
  20        2S         -0.12977   0.01549  -0.03501  -0.01468  -0.00207
  21        2PX        -0.11798   0.00732   0.01702   0.00280   0.03661
  22        2PY        -0.02928   0.00530   0.01457   0.03019  -0.01914
  23        2PZ        -0.00115   0.01885  -0.00631   0.06061  -0.01797
  24        3S          1.11231  -0.13397   0.34989   0.14230   0.06416
  25        3PX         0.06130  -0.01755   0.16292   0.05565   0.16188
  26        3PY         0.00898  -0.00854   0.04942   0.05629  -0.00932
  27        3PZ         0.00223   0.02341  -0.00574   0.09531  -0.03112
  28        4S         -4.84212   1.27651  -5.64316  -2.77114  -2.96782
  29        4PX         2.33355  -0.53219   2.13210   1.02602   1.07943
  30        4PY         0.29355   0.00060   0.45109   0.24079   0.22956
  31        4PZ         0.05702   0.09197   0.02233   0.14507   0.02514
  32        5D 0        0.08303  -0.03451   0.01335   0.01088   0.03257
  33        5D+1       -0.00558   0.05025  -0.01378   0.21473  -0.07912
  34        5D-1       -0.00159   0.02518  -0.01415   0.07685   0.03134
  35        5D+2       -0.11971  -0.00879  -0.02303  -0.05601   0.04024
  36        5D-2       -0.06612   0.01827  -0.00875   0.07867  -0.07382
  37 3   N  1S         -0.03684   0.01195   0.00735   0.00510   0.00092
  38        2S         -0.07326   0.02059   0.01132   0.01544   0.00056
  39        2PX         0.01809   0.03008  -0.00050  -0.02999   0.05362
  40        2PY         0.00263  -0.05096  -0.02080   0.02384  -0.01814
  41        2PZ         0.01898  -0.01146  -0.01031  -0.07239  -0.00423
  42        3S          0.76123  -0.11143  -0.09673  -0.26822  -0.04288
  43        3PX        -0.09477   0.09623  -0.00584   0.06031   0.10218
  44        3PY         0.11835  -0.08290  -0.05174  -0.00855   0.07780
  45        3PZ        -0.05245  -0.05685   0.04356  -0.13492  -0.05330
  46        4S         -2.95425  -0.55202   3.77641   2.72519   2.23440
  47        4PX        -1.11595  -0.48454   1.65891   0.49707   0.84233
  48        4PY        -0.02122   0.48622  -0.48094  -0.39819  -0.95891
  49        4PZ        -0.19557   0.35427   0.24815   0.69216   0.45214
  50        5D 0       -0.02956  -0.22830  -0.04858   0.08774  -0.05567
  51        5D+1       -0.00969   0.11894  -0.01986   0.33621  -0.08485
  52        5D-1        0.02141   0.08122  -0.07151  -0.10839   0.06203
  53        5D+2       -0.05135  -0.14963  -0.05511   0.01054  -0.05047
  54        5D-2        0.03561   0.02182  -0.16805   0.11795  -0.18466
  55 4   H  1S         -0.01754  -0.05136   0.03662  -0.04283  -0.07249
  56        2S          0.48547   0.08836  -0.21462  -0.54659  -0.36449
  57        3S         -0.01849  -0.09307   0.05544   0.00710  -0.09617
  58        4PX        -0.04764  -0.00672   0.39438   0.23277  -0.18150
  59        4PY         0.04351  -0.41298  -0.31892  -0.15281   0.19980
  60        4PZ        -0.24490  -0.55965   0.11621   0.11598   0.23152
  61 5   H  1S         -0.03857   0.00516   0.06021  -0.02336   0.05965
  62        2S          0.31244  -0.38154  -0.14687  -0.02539   0.03172
  63        3S         -0.10800   0.19310   0.25773  -0.14630   0.23422
  64        4PX        -0.04764   0.41534  -0.42273  -0.14883   0.30942
  65        4PY         0.03674  -0.13870  -0.61624   0.43304  -0.03917
  66        4PZ        -0.05607  -0.09872  -0.11143  -0.36679  -0.81130
                          36        37        38        39        40
                           V         V         V         V         V
     Eigenvalues --     1.55188   1.66483   1.68256   1.71912   1.84364
   1 1   N  1S          0.00805   0.00115  -0.00127   0.00122  -0.00902
   2        2S          0.01707   0.00180  -0.00218   0.00131  -0.01943
   3        2PX        -0.00887   0.04255  -0.00155   0.06286   0.00556
   4        2PY         0.03056   0.03003   0.02312   0.01538  -0.03827
   5        2PZ         0.00547  -0.03296   0.01926  -0.00854   0.03065
   6        3S         -0.26736   0.00022   0.03670   0.04193   0.19927
   7        3PX        -0.14968   0.06287   0.04180   0.04009  -0.07879
   8        3PY        -0.01746   0.05403   0.03784   0.00984  -0.02135
   9        3PZ         0.01044  -0.04369   0.02895  -0.01122   0.00587
  10        4S          3.35130  -0.59001  -0.57648  -1.18877  -0.95753
  11        4PX         1.80020  -1.22505  -0.67992   1.15665   1.79603
  12        4PY         0.42768  -0.39804  -0.12569  -0.15183  -0.06497
  13        4PZ         0.06609   0.23773  -0.07272   0.40127   0.24980
  14        5D 0        0.03167   0.20347   0.54594  -0.16797   0.03085
  15        5D+1       -0.11298  -0.19053  -0.02877  -0.24329  -0.22623
  16        5D-1       -0.09702   0.51718  -0.32240  -0.33301   0.06063
  17        5D+2        0.09033   0.17353   0.32433  -0.09604  -0.06660
  18        5D-2        0.27574   0.04208  -0.01910   0.16764   0.26152
  19 2   N  1S         -0.00527   0.00428   0.00164   0.00645   0.00083
  20        2S         -0.01013   0.00989   0.00346   0.01366   0.00167
  21        2PX         0.04201  -0.00346  -0.01161   0.02170   0.01925
  22        2PY        -0.04117   0.00065   0.02204  -0.02139  -0.04727
  23        2PZ         0.01660   0.01570   0.01318   0.05430   0.04464
  24        3S          0.16726  -0.09169  -0.04531  -0.11128  -0.01670
  25        3PX         0.19268  -0.00289  -0.04136   0.07592   0.04187
  26        3PY        -0.04029   0.00392   0.02965  -0.02532  -0.06492
  27        3PZ         0.03196   0.02562   0.01905   0.08231   0.06190
  28        4S         -2.94276   1.28958   0.82023  -0.39915  -1.03944
  29        4PX         1.18042  -0.51366  -0.31898   0.04847   0.29742
  30        4PY         0.26829  -0.05509  -0.08126   0.12320   0.25173
  31        4PZ         0.01684  -0.11044   0.00520  -0.16922  -0.13279
  32        5D 0        0.07207   0.15086   0.42099  -0.15059   0.09270
  33        5D+1        0.08868  -0.03382   0.11435   0.30070   0.18824
  34        5D-1       -0.02527   0.38678  -0.21891  -0.25192   0.28016
  35        5D+2        0.07778   0.10061   0.17727  -0.00611   0.16277
  36        5D-2       -0.14628   0.05295   0.21551  -0.14855  -0.25789
  37 3   N  1S         -0.03060  -0.01981   0.00786  -0.00715   0.01631
  38        2S         -0.06415  -0.04201   0.01557  -0.01212   0.03071
  39        2PX         0.02836  -0.00648   0.00391   0.03473   0.08701
  40        2PY         0.02136  -0.03406  -0.01245  -0.04132   0.10010
  41        2PZ        -0.01614   0.01530  -0.00000   0.01170  -0.08200
  42        3S          0.62501   0.33689  -0.10986  -0.02314  -0.24596
  43        3PX         0.13093  -0.15916  -0.00558  -0.03166   0.15765
  44        3PY         0.06007  -0.17597   0.04754  -0.06433   0.09282
  45        3PZ         0.04558   0.13809  -0.03337   0.07177  -0.05732
  46        4S         -0.76787  -1.17487  -0.26895   1.26749   1.94476
  47        4PX        -0.73094   0.17541   0.01045   1.34076   0.92304
  48        4PY        -0.14213   0.59539   0.00828   0.02302  -0.22494
  49        4PZ        -0.37323  -0.49810   0.09877  -0.24229   0.17288
  50        5D 0        0.07756   0.12428   0.04621   0.05562  -0.02458
  51        5D+1        0.12984   0.10978  -0.05992   0.09812  -0.07839
  52        5D-1       -0.05462   0.18067  -0.03052   0.14022  -0.31839
  53        5D+2       -0.04566   0.04667   0.05815   0.03245  -0.12892
  54        5D-2       -0.22256  -0.10117   0.00317  -0.13402   0.03438
  55 4   H  1S         -0.13892  -0.20464  -0.00024  -0.38494   0.69821
  56        2S          0.50078   0.82441   0.00385   0.78860  -1.09561
  57        3S         -0.18740  -0.13948  -0.01277  -0.24047   0.50985
  58        4PX         0.30898  -0.37050  -0.05535  -0.59481  -0.15099
  59        4PY        -0.06155  -0.19918  -0.01241   0.09789   0.33569
  60        4PZ         0.31132   0.05201  -0.22611  -0.01052  -0.28123
  61 5   H  1S          0.04687  -0.00270   0.02312   0.03236   0.10000
  62        2S          0.02970   0.01749  -0.04494   0.05127  -0.11823
  63        3S          0.07784   0.02734   0.08810   0.13759   0.03339
  64        4PX         0.58196  -0.16453   0.04187  -0.23962  -0.08999
  65        4PY         0.05633  -0.15651  -0.08994  -0.23793  -0.10922
  66        4PZ         0.40638   0.15723  -0.09732  -0.03546   0.00458
                          41        42        43        44        45
                           V         V         V         V         V
     Eigenvalues --     1.90470   2.07532   2.10006   2.21831   2.23049
   1 1   N  1S         -0.00577   0.00240   0.00315   0.00364   0.00952
   2        2S         -0.01169   0.00637   0.00689   0.00985   0.02443
   3        2PX         0.00844   0.00339  -0.00738  -0.00238   0.05699
   4        2PY        -0.01452   0.05855  -0.00714   0.10429   0.09858
   5        2PZ        -0.03472   0.03260   0.01238   0.06763  -0.11520
   6        3S          0.17167  -0.04699  -0.03538  -0.12559  -0.20317
   7        3PX        -0.08238   0.02772   0.01617   0.02901   0.05822
   8        3PY        -0.01320   0.00405  -0.02757   0.00683  -0.02009
   9        3PZ        -0.00477   0.02710   0.01425   0.00501  -0.00584
  10        4S         -0.82812   0.02528   0.06219   0.29267  -0.51091
  11        4PX         3.40475   0.83043   0.71086   0.27792   1.06929
  12        4PY        -0.24939   0.14673   0.14390   0.42583   0.29728
  13        4PZ        -0.17264   0.04764   0.14589   0.33319  -0.12325
  14        5D 0        0.06416   0.27122  -0.32014  -0.11081  -0.20260
  15        5D+1        0.17491   0.02273   0.03366  -0.07206  -0.06374
  16        5D-1        0.03410  -0.31532  -0.38155   0.19323   0.13248
  17        5D+2       -0.11316   0.18961  -0.22021   0.08556   0.12702
  18        5D-2        0.35995   0.07368  -0.06026   0.01618   0.09061
  19 2   N  1S          0.00295   0.00291  -0.00072   0.00553   0.00947
  20        2S          0.00511   0.00638  -0.00209   0.01343   0.02369
  21        2PX         0.04554   0.01221   0.00919   0.00422  -0.00520
  22        2PY        -0.04290   0.01298   0.01187   0.00746   0.01926
  23        2PZ        -0.03620   0.00171   0.00126   0.01843  -0.00958
  24        3S         -0.03153  -0.04163   0.02138  -0.10280  -0.20231
  25        3PX         0.09499   0.06171   0.00089   0.10349   0.19035
  26        3PY        -0.07022   0.02572   0.00042   0.04581   0.05500
  27        3PZ        -0.05000   0.01059   0.00991   0.02648  -0.01095
  28        4S         -2.28626  -0.67095  -0.61791  -0.33557  -0.56757
  29        4PX         0.70955   0.23144   0.24023   0.12522   0.09895
  30        4PY         0.48939   0.00744   0.02356  -0.16826  -0.11324
  31        4PZ         0.15344  -0.01637  -0.04303  -0.18061   0.13198
  32        5D 0        0.12253  -0.48260   0.47086   0.00211  -0.00950
  33        5D+1       -0.21781  -0.00889  -0.05333   0.31584  -0.31739
  34        5D-1       -0.12866   0.51710   0.53271  -0.09945  -0.18108
  35        5D+2        0.20080  -0.29834   0.24084  -0.10295   0.06617
  36        5D-2       -0.23683   0.03217   0.11457   0.36481   0.32992
  37 3   N  1S          0.01518   0.01206   0.00555   0.00922   0.02070
  38        2S          0.03942   0.03000   0.01634   0.01692   0.05024
  39        2PX        -0.01903   0.00067  -0.01991   0.02114   0.03656
  40        2PY         0.08932   0.01336  -0.06953   0.01967   0.04486
  41        2PZ         0.07887   0.05068   0.04078  -0.01833  -0.01041
  42        3S         -0.59975  -0.29728  -0.18436  -0.09249  -0.49143
  43        3PX         0.22278   0.11026   0.10896  -0.03830  -0.00764
  44        3PY        -0.11034   0.15729   0.13958  -0.04820   0.25620
[...]
     4   1    -0.04   0.03  -0.05     0.26  -0.22   0.11    -0.23  -0.35  -0.77
     5   1     0.48  -0.83  -0.26    -0.35  -0.71  -0.19    -0.33  -0.10  -0.20
                     4                      5                      6
                     A                      A                      A
 Frequencies --   676.7769               882.6439              1240.7601
 Red. masses --     2.0046                 1.3162                 3.5724
 Frc consts  --     0.5410                 0.6042                 3.2403
 IR Inten    --    38.8547                65.0797                22.5350
  Atom  AN      X      Y      Z        X      Y      Z        X      Y      Z
     1   7    -0.01   0.05   0.17    -0.06   0.08  -0.01     0.10  -0.01   0.03
     2   7     0.01  -0.01  -0.07    -0.05  -0.00  -0.00     0.23   0.03   0.00
     3   7    -0.03  -0.05  -0.19     0.05  -0.09   0.04    -0.36  -0.02  -0.02
     4   1     0.06   0.35   0.44    -0.16  -0.19  -0.29     0.21  -0.54  -0.12
     5   1     0.37  -0.17   0.66     0.86   0.28  -0.08     0.25   0.62  -0.09
                     7                      8                      9
                     A                      A                      A
 Frequencies --  1314.9129              2214.5212              3542.8799
 Red. masses --     1.1972                11.3688                 1.0766
 Frc consts  --     1.2195                32.8491                 7.9617
 IR Inten    --    47.5250               360.4309                61.8696
  Atom  AN      X      Y      Z        X      Y      Z        X      Y      Z
     1   7     0.02   0.02  -0.03     0.69   0.13   0.01    -0.00   0.00  -0.00
     2   7     0.09   0.02   0.01    -0.51  -0.11  -0.01    -0.00  -0.00  -0.00
     3   7    -0.03  -0.06   0.03    -0.16  -0.01   0.01     0.04   0.05  -0.04
     4   1    -0.88   0.41  -0.12    -0.39   0.04  -0.12    -0.48  -0.69   0.53
     5   1    -0.10  -0.04   0.11     0.12  -0.14  -0.07    -0.00  -0.01  -0.01

 -------------------
 - Thermochemistry -
 -------------------
 Temperature   298.150 Kelvin.  Pressure   1.00000 Atm.
 Atom     1 has atomic number  7 and mass  14.00307
 Atom     2 has atomic number  7 and mass  14.00307
 Atom     3 has atomic number  7 and mass  14.00307
 Atom     4 has atomic number  1 and mass   1.00783
 Atom     5 has atomic number  1 and mass   1.00783
 Molecular mass:    44.02487 amu.
 Principal axes and moments of inertia in atomic units:
                           1         2         3
     Eigenvalues --    10.18881 163.09425 170.37784
           X            0.99941  -0.02409  -0.02432
           Y            0.02393   0.99969  -0.00675
           Z            0.02448   0.00617   0.99968
 This molecule is an asymmetric top.
 Rotational symmetry number  1.
 Rotational temperatures (Kelvin)      8.50088     0.53107     0.50836
 Rotational constants (GHZ):         177.12971    11.06563    10.59258
    1 imaginary frequencies ignored.
 Zero-point vibrational energy      64766.7 (Joules/Mol)
                                   15.47961 (Kcal/Mol)
 Warning -- explicit consideration of   2 degrees of freedom as
           vibrations may cause significant error
 Vibrational temperatures:    646.56   728.41   973.73  1269.93  1785.17
          (Kelvin)           1891.86  3186.20  5097.41
 
 Zero-point correction=                           0.024668 (Hartree/Particle)
 Thermal correction to Energy=                    0.028190
 Thermal correction to Enthalpy=                  0.029134
 Thermal correction to Gibbs Free Energy=         0.000193
 Sum of electronic and zero-point Energies=           -165.203414
 Sum of electronic and thermal Energies=              -165.199893
 Sum of electronic and thermal Enthalpies=            -165.198949
 Sum of electronic and thermal Free Energies=         -165.227890
 
                     E (Thermal)             CV                S
                      KCal/Mol        Cal/Mol-Kelvin    Cal/Mol-Kelvin
 Total                   17.689             10.284             60.912
 Electronic               0.000              0.000              1.377
 Translational            0.889              2.981             37.273
 Rotational               0.889              2.981             20.276
 Vibrational             15.912              4.323              1.986
 Vibration     1          0.808              1.362              0.798
 Vibration     2          0.861              1.236              0.643
                       Q            Log10(Q)             Ln(Q)
 Total Bot       0.815465D+00         -0.088595         -0.203997
 Total V=0       0.181143D+12         11.258022         25.922554
 Vib (Bot)       0.589575D-11        -11.229461        -25.856789
 Vib (Bot)    1  0.381802D+00         -0.418162         -0.962854
 Vib (Bot)    2  0.322826D+00         -0.491031         -1.130641
 Vib (V=0)       0.130965D+01          0.117156          0.269761
 Vib (V=0)    1  0.112910D+01          0.052734          0.121425
 Vib (V=0)    2  0.109516D+01          0.039478          0.090901
 Electronic      0.200000D+01          0.301030          0.693147
 Translational   0.114816D+08          7.060002         16.256256
 Rotational      0.602329D+04          3.779834          8.703390
 
                                                  reverse IRC, from TS reverse1 f
 req
                                                             IR Spectrum
 
     3                                               2                               1  1                                            
     5                                               2                               3  2            8      6     5 4                
     4                                               1                               1  4            8      7     0 4                
     3                                               5                               5  1            3      7     6 9                
 
     X                                               X                               X  X            X      X     X X                
     X                                               X                               X               X      X     X                  
     X                                               X                               X               X                               
                                                     X                                               X                               
                                                     X                                                                               
                                                     X                                                                               
                                                     X                                                                               
                                                     X                                                                               
                                                     X                                                                               
                                                     X                                                                               
                                                     X                                                                               
                                                     X                                                                               
                                                     X                                                                               
                                                     X                                                                               
                                                     X                                                                               
                                                     X                                                                               
                                                     X                                                                               
                                                     X                                                                               
                                                     X                                                                               
                                                     X                                                                               
 
 ***** Axes restored to original set *****
 -------------------------------------------------------------------
 Center     Atomic                   Forces (Hartrees/Bohr)
 Number     Number              X              Y              Z
 -------------------------------------------------------------------
      1        7          -0.014766563   -0.014702099   -0.004645662
      2        7           0.006886996    0.007816115    0.011450247
      3        7           0.019571423    0.027046986   -0.013339570
      4        1           0.001689263   -0.000064398   -0.000930724
      5        1          -0.013381119   -0.020096603    0.007465709
 -------------------------------------------------------------------
 Cartesian Forces:  Max     0.027046986 RMS     0.013242176
 Z-matrix is all fixed cartesians, so copy forces.
 Force constants in Cartesian coordinates: 
                1             2             3             4             5 
      1  0.960347D-01
      2 -0.299023D-01  0.789020D-01
      3 -0.181903D+00  0.415152D-01  0.160983D+01
      4 -0.289630D-01  0.198493D-01  0.774509D-01  0.253631D-01
      5  0.274096D-01 -0.350919D-01 -0.683093D-01 -0.122584D-01  0.180204D-01
      6  0.119856D+00 -0.366159D-01 -0.106333D+01 -0.123955D+00  0.460303D-01
      7 -0.500759D-01  0.427230D-01  0.785440D-01 -0.134423D-02 -0.324559D-01
      8  0.370997D-01 -0.142231D-03  0.596005D-01 -0.207262D-01 -0.817384D-02
      9  0.602313D-01 -0.356633D-01 -0.497070D+00  0.514998D-01  0.312065D-01
     10  0.787168D-02  0.760583D-03  0.371340D-01 -0.108702D-02  0.321718D-03
     11  0.837997D-02 -0.132843D-01 -0.450627D-02 -0.240595D-02  0.738494D-02
     12 -0.215097D-01  0.262228D-02 -0.634790D-01  0.240093D-03 -0.270338D-03
     13 -0.248674D-01 -0.334306D-01 -0.112262D-01  0.603117D-02  0.169830D-01
     14 -0.429870D-01 -0.303836D-01 -0.283001D-01  0.155412D-01  0.178604D-01
     15  0.233249D-01  0.281418D-01  0.140470D-01 -0.523547D-02 -0.865723D-02
                6             7             8             9            10 
      6  0.110234D+01
      7 -0.413532D-01  0.298334D+00
      8 -0.777686D-01 -0.486483D-01 -0.357499D-01
      9 -0.245470D-01  0.170182D+00  0.514093D-01  0.718115D+00
     10  0.818717D-03 -0.273002D+00 -0.252296D-01 -0.229318D+00  0.266528D+00
     11  0.130250D-02 -0.151689D-01 -0.848376D-02  0.135415D-01  0.167964D-01
     12  0.912532D-02 -0.177506D+00 -0.467471D-03 -0.184111D+00  0.195366D+00
     13  0.446336D-01  0.260877D-01  0.575043D-01 -0.525946D-01 -0.311041D-03
     14  0.670517D-01  0.535500D-01  0.525497D-01 -0.604940D-01  0.735088D-02
     15 -0.235936D-01 -0.298662D-01 -0.327737D-01 -0.123867D-01 -0.400034D-02
               11            12            13            14            15 
     11  0.150261D-01
     12 -0.231352D-02  0.234734D+00
     13 -0.760152D-02  0.341007D-02 -0.694038D-02
     14 -0.642919D-03  0.429053D-03 -0.334551D-01 -0.393836D-01
     15 -0.802419D-02  0.373033D-02  0.157772D-01  0.213133D-01  0.182031D-01
 Leave Link  716 at Fri Apr 25 17:09:51 2014, MaxMem=   65536000 cpu:       0.2
 (Enter /apps/gaussian/g09/l103.exe)

 GradGradGradGradGradGradGradGradGradGradGradGradGradGradGradGradGradGrad
 Berny optimization.
 Search for a local minimum.
 Step number   1 out of a maximum of    2
 All quantities printed in internal units (Hartrees-Bohrs-Radians)
 Second derivative matrix not updated -- analytic derivatives used.
 The second derivative matrix:
                          X1        Y1        Z1        X2        Y2
           X1           0.09603
           Y1          -0.02990   0.07890
           Z1          -0.18190   0.04152   1.60983
           X2          -0.02896   0.01985   0.07745   0.02536
           Y2           0.02741  -0.03509  -0.06831  -0.01226   0.01802
           Z2           0.11986  -0.03662  -1.06333  -0.12396   0.04603
           X3          -0.05008   0.04272   0.07854  -0.00134  -0.03246
           Y3           0.03710  -0.00014   0.05960  -0.02073  -0.00817
           Z3           0.06023  -0.03566  -0.49707   0.05150   0.03121
           X4           0.00787   0.00076   0.03713  -0.00109   0.00032
           Y4           0.00838  -0.01328  -0.00451  -0.00241   0.00738
           Z4          -0.02151   0.00262  -0.06348   0.00024  -0.00027
           X5          -0.02487  -0.03343  -0.01123   0.00603   0.01698
           Y5          -0.04299  -0.03038  -0.02830   0.01554   0.01786
           Z5           0.02332   0.02814   0.01405  -0.00524  -0.00866
                          Z2        X3        Y3        Z3        X4
           Z2           1.10234
           X3          -0.04135   0.29833
           Y3          -0.07777  -0.04865  -0.03575
           Z3          -0.02455   0.17018   0.05141   0.71811
           X4           0.00082  -0.27300  -0.02523  -0.22932   0.26653
           Y4           0.00130  -0.01517  -0.00848   0.01354   0.01680
           Z4           0.00913  -0.17751  -0.00047  -0.18411   0.19537
           X5           0.04463   0.02609   0.05750  -0.05259  -0.00031
           Y5           0.06705   0.05355   0.05255  -0.06049   0.00735
           Z5          -0.02359  -0.02987  -0.03277  -0.01239  -0.00400
                          Y4        Z4        X5        Y5        Z5
           Y4           0.01503
           Z4          -0.00231   0.23473
           X5          -0.00760   0.00341  -0.00694
           Y5          -0.00064   0.00043  -0.03346  -0.03938
           Z5          -0.00802   0.00373   0.01578   0.02131   0.01820
     Eigenvalues ---   -0.20705   0.02633   0.03160   0.06624   0.10509
     Eigenvalues ---    0.17520   0.51293   1.00955   2.56656
 Eigenvalue     1 is  -2.07D-01 should be greater than     0.000000 Eigenvector:
                          Y5        X5        Y3        X1        Y1
   1                   -0.64684  -0.38433   0.38201  -0.24802  -0.24501
                          Z5        X3        X2        Y2        Z3
   1                    0.22766   0.21830   0.13536   0.12256  -0.11547
 Angle between quadratic step and forces=  21.82 degrees.
 Linear search not attempted -- first point.
 TrRot=  0.004731  0.010884 -0.005613 -1.756374  0.004109  1.763052
 Variable       Old X    -DE/DX   Delta X   Delta X   Delta X     New X
                                 (Linear)    (Quad)   (Total)
    X1       -0.22300  -0.01477   0.00000  -0.10553  -0.09920  -0.32219
    Y1       -0.14043  -0.01470   0.00000  -0.11785  -0.10983  -0.25026
    Z1        0.17387  -0.00465   0.00000  -0.00721  -0.01412   0.15975
    X2       -0.43468   0.00689   0.00000   0.04743   0.05025  -0.38443
    Y2       -0.03225   0.00782   0.00000   0.05314   0.05197   0.01972
    Z2        2.31582   0.01145   0.00000   0.02988   0.02403   2.33985
    X3        0.56801   0.01957   0.00000   0.06714   0.07256   0.64057
    Y3        0.01470   0.02705   0.00000   0.11622   0.13976   0.15446
    Z3       -2.05040  -0.01334   0.00000  -0.03437  -0.03894  -2.08933
    X4       -0.89084   0.00169   0.00000   0.00873   0.01633  -0.87451
    Y4       -0.02934  -0.00006   0.00000  -0.02413  -0.00586  -0.03520
    Z4       -3.30011  -0.00093   0.00000   0.01448   0.00798  -3.29212
    X5        2.13652  -0.01338   0.00000  -0.03264  -0.03995   2.09657
    Y5        2.22406  -0.02010   0.00000  -0.11216  -0.07604   2.14802
    Z5       -2.80358   0.00747   0.00000   0.01647   0.02105  -2.78253
         Item               Value     Threshold  Converged?
 Maximum Force            0.027047     0.000450     NO 
 RMS     Force            0.013242     0.000300     NO 
 Maximum Displacement     0.139761     0.001800     NO 
 RMS     Displacement     0.064500     0.001200     NO 
 Predicted change in Energy=-1.646203D-02
 GradGradGradGradGradGradGradGradGradGradGradGradGradGradGradGradGradGrad

 Leave Link  103 at Fri Apr 25 17:09:51 2014, MaxMem=   65536000 cpu:       0.0
 (Enter /apps/gaussian/g09/l9999.exe)

 Test job not archived.
 1\1\GINC-ROMEO166\Freq\UM06\6-311G(d,p)\H2N3(2)\ROOT\25-Apr-2014\0\\#P
  M06 6-311G** FREQ # GFINPUT IOP(6/7=3) POP=FULL\\reverse IRC, from TS
  reverse1 freq\\0,2\N,-0.118004,-0.074315,0.09201\N,-0.230023,-0.01706
 5,1.22548\N,0.300577,0.00778,-1.085023\H,-0.471414,-0.015525,-1.746341
 \H,1.130599,1.17692,-1.483591\\Version=AM64L-G09RevA.02\State=2-A\HF=-
 165.2280824\S2=0.76532\S2-1=0.\S2A=0.75005\RMSD=6.872e-09\RMSF=1.324e-
 02\ZeroPoint=0.0246683\Thermal=0.0281897\Dipole=-0.4750983,-0.0249392,
 -0.721686\DipoleDeriv=-0.2719334,-0.4575177,0.0073996,-0.3616556,-0.20
 92619,0.2585536,-0.7377624,-0.4079848,1.859967,-0.0645501,0.1071937,-0
 .0552356,0.170083,0.0074328,-0.1749808,0.8743948,0.7621041,-1.4293541,
 0.4186612,0.6117082,-0.2539649,0.7081374,0.3606908,-0.8205422,-0.33596
 38,-0.5162127,-0.4686763,0.1883813,-0.0102526,-0.0764864,-0.0525451,0.
 2885074,0.0943203,0.0712473,0.0535292,0.3006786,-0.270559,-0.2511316,0
 .3782873,-0.4640198,-0.447369,0.6426491,0.1280841,0.1085643,-0.2626152
 \Polar=22.8220452,10.8975506,22.0606803,-14.0587268,-11.8094197,48.908
 9119\PG=C01 [X(H2N3)]\NImag=1\\0.09603468,-0.02990230,0.07890199,-0.18
 190274,0.04151519,1.60982867,-0.02896305,0.01984933,0.07745089,0.02536
 312,0.02740964,-0.03509187,-0.06830929,-0.01225845,0.01802040,0.119856
 27,-0.03661592,-1.06332628,-0.12395533,0.04603033,1.10234155,-0.050075
 89,0.04272304,0.07854403,-0.00134423,-0.03245593,-0.04135325,0.2983340
 4,0.03709971,-0.00014223,0.05960049,-0.02072616,-0.00817384,-0.0777686
 5,-0.04864828,-0.03574987,0.06023128,-0.03566331,-0.49707036,0.0514998
 2,0.03120653,-0.02454695,0.17018185,0.05140931,0.71811472,0.00787168,0
 .00076058,0.03713404,-0.00108702,0.00032172,0.00081872,-0.27300158,-0.
 02522956,-0.22931834,0.26652796,0.00837997,-0.01328433,-0.00450627,-0.
 00240595,0.00738494,0.00130250,-0.01516888,-0.00848376,0.01354148,0.01
 679638,0.01502606,-0.02150968,0.00262228,-0.06347900,0.00024009,-0.000
 27034,0.00912532,-0.17750640,-0.00046747,-0.18411069,0.19536592,-0.002
 31352,0.23473404,-0.02486742,-0.03343065,-0.01122622,0.00603117,0.0169
 8302,0.04463359,0.02608767,0.05750429,-0.05259461,-0.00031104,-0.00760
 152,0.00341007,-0.00694038,-0.04298701,-0.03038356,-0.02830012,0.01554
 123,0.01786038,0.06705174,0.05355004,0.05254970,-0.06049401,0.00735088
 ,-0.00064292,0.00042905,-0.03345513,-0.03938360,0.02332487,0.02814176,
 0.01404697,-0.00523547,-0.00865723,-0.02359365,-0.02986623,-0.03277367
 ,-0.01238671,-0.00400034,-0.00802419,0.00373033,0.01577717,0.02131334,
 0.01820306\\0.01476656,0.01470210,0.00464566,-0.00688700,-0.00781612,-
 0.01145025,-0.01957142,-0.02704699,0.01333957,-0.00168926,0.00006440,0
 .00093072,0.01338112,0.02009660,-0.00746571\\\@


 A SUCCESSFUL PURSUIT OF SCIENCE MAKES A MAN THE
 BENEFACTOR OF ALL MANKIND OF EVERY AGE.
   --  JOSEPH PRIESTLEY, "EXPERIMENTS AND
 OBSERVATIONS ON DIFFERENT KINDS OF AIR", 1774
 Job cpu time:  0 days  0 hours  1 minutes 52.7 seconds.
 File lengths (MBytes):  RWF=      9 Int=      0 D2E=      0 Chk=      1 Scr=      1
 Normal termination of Gaussian 09 at Fri Apr 25 17:09:51 2014.
************
total 320
drwxrwxr-x 2 henon henon   4096 25 avril 17:09 .
drwxrwxr-x 3 henon henon   4096 25 avril 17:09 ..
-rw-r--r-- 1 henon henon    392 25 avril 17:09 2Rfreq.inp
-rw-rw-r-- 1 henon henon 311856 25 avril 17:09 2Rfreq.out
Run on 12 cores
romeo166
************
