 Entering Gaussian System, Link 0=g09
 Initial command:
 /apps/gaussian/g09/l1.exe /scratch_l/henon/6Rfreq_13048/Gau-13064.inp -scrdir=/scratch_l/henon/6Rfreq_13048/
 Entering Link 1 = /apps/gaussian/g09/l1.exe PID=     13065.
  
 Copyright (c) 1988,1990,1992,1993,1995,1998,2003,2009, Gaussian, Inc.
                  All Rights Reserved.
  
 This is part of the Gaussian(R) 09 program.  It is based on
 the Gaussian(R) 03 system (copyright 2003, Gaussian, Inc.),
 the Gaussian(R) 98 system (copyright 1998, Gaussian, Inc.),
 the Gaussian(R) 94 system (copyright 1995, Gaussian, Inc.),
 the Gaussian 92(TM) system (copyright 1992, Gaussian, Inc.),
 the Gaussian 90(TM) system (copyright 1990, Gaussian, Inc.),
 the Gaussian 88(TM) system (copyright 1988, Gaussian, Inc.),
 the Gaussian 86(TM) system (copyright 1986, Carnegie Mellon
 University), and the Gaussian 82(TM) system (copyright 1983,
 Carnegie Mellon University). Gaussian is a federally registered
 trademark of Gaussian, Inc.
  
 This software contains proprietary and confidential information,
 including trade secrets, belonging to Gaussian, Inc.
  
 This software is provided under written license and may be
 used, copied, transmitted, or stored only in accord with that
 written license.
  
 The following legend is applicable only to US Government
 contracts under FAR:
  
                    RESTRICTED RIGHTS LEGEND
  
 Use, reproduction and disclosure by the US Government is
 subject to restrictions as set forth in subparagraphs (a)
 and (c) of the Commercial Computer Software - Restricted
 Rights clause in FAR 52.227-19.
  
 Gaussian, Inc.
 340 Quinnipiac St., Bldg. 40, Wallingford CT 06492
  
  
 ---------------------------------------------------------------
 Warning -- This program may not be used in any manner that
 competes with the business of Gaussian, Inc. or will provide
 assistance to any competitor of Gaussian, Inc.  The licensee
 of this program is prohibited from giving any competitor of
 Gaussian, Inc. access to this program.  By using this program,
 the user acknowledges that Gaussian, Inc. is engaged in the
 business of creating and licensing software in the field of
 computational chemistry and represents and warrants to the
 licensee that it is not a competitor of Gaussian, Inc. and that
 it will not use this program in any manner prohibited above.
 ---------------------------------------------------------------
  

 Cite this work as:
 Gaussian 09, Revision A.02,
 M. J. Frisch, G. W. Trucks, H. B. Schlegel, G. E. Scuseria, 
 M. A. Robb, J. R. Cheeseman, G. Scalmani, V. Barone, B. Mennucci, 
 G. A. Petersson, H. Nakatsuji, M. Caricato, X. Li, H. P. Hratchian, 
 A. F. Izmaylov, J. Bloino, G. Zheng, J. L. Sonnenberg, M. Hada, 
 M. Ehara, K. Toyota, R. Fukuda, J. Hasegawa, M. Ishida, T. Nakajima, 
 Y. Honda, O. Kitao, H. Nakai, T. Vreven, J. A. Montgomery, Jr., 
 J. E. Peralta, F. Ogliaro, M. Bearpark, J. J. Heyd, E. Brothers, 
 K. N. Kudin, V. N. Staroverov, R. Kobayashi, J. Normand, 
 K. Raghavachari, A. Rendell, J. C. Burant, S. S. Iyengar, J. Tomasi, 
 M. Cossi, N. Rega, J. M. Millam, M. Klene, J. E. Knox, J. B. Cross, 
 V. Bakken, C. Adamo, J. Jaramillo, R. Gomperts, R. E. Stratmann, 
 O. Yazyev, A. J. Austin, R. Cammi, C. Pomelli, J. W. Ochterski, 
 R. L. Martin, K. Morokuma, V. G. Zakrzewski, G. A. Voth, 
 P. Salvador, J. J. Dannenberg, S. Dapprich, A. D. Daniels, 
 O. Farkas, J. B. Foresman, J. V. Ortiz, J. Cioslowski, 
 and D. J. Fox, Gaussian, Inc., Wallingford CT, 2009.
 
 ******************************************
 Gaussian 09:  AM64L-G09RevA.02 11-Jun-2009
                25-Apr-2014 
 ******************************************
 %NPROC=12
 Will use up to   12 processors via shared memory.
 %MEM=500MB
 --------------------------------------------------
 #P M06 6-311G** FREQ # GFINPUT IOP(6/7=3) POP=FULL
 --------------------------------------------------
 1/10=4,30=1,38=1/1,3;
 2/12=2,17=6,18=5,40=1/2;
 3/5=4,6=6,7=101,11=2,16=1,24=10,25=1,30=1,71=2,74=-54/1,2,3;
 4//1;
 5/5=2,38=5,98=1/2;
 8/6=4,10=90,11=11/1;
 11/6=1,8=1,9=11,15=111,16=1/1,2,10;
 10/6=1/2;
 6/7=3,18=1,28=1/1;
 7/8=1,10=1,25=1/1,2,3,16;
 1/10=4,30=1/3;
 99//99;
 Leave Link    1 at Fri Apr 25 17:09:51 2014, MaxMem=   65536000 cpu:       0.4
 (Enter /apps/gaussian/g09/l101.exe)
 ----------------------------------
 reverse IRC, from TS reverse1 freq
 ----------------------------------
 Symbolic Z-matrix:
 Charge =  0 Multiplicity = 2
 7                    -0.14486  -0.09562   0.08705 
 7                    -0.21741  -0.00575   1.24274 
 7                     0.32607   0.04077  -1.10529 
 1                    -0.43951  -0.03361  -1.76602 
 1                     0.94183   0.8745   -1.35303 
 
 NAtoms=      5 NQM=      5 NQMF=      0 NMic=      0 NMicF=      0 NTot=      5.
                    Isotopes and Nuclear Properties:
 (Nuclear quadrupole moments (NQMom) in fm**2, nuclear magnetic moments (NMagM)
  in nuclear magnetons)

  Atom         1           2           3           4           5
 IAtWgt=          14          14          14           1           1
 AtmWgt=  14.0030740  14.0030740  14.0030740   1.0078250   1.0078250
 NucSpn=           2           2           2           1           1
 AtZEff=   0.0000000   0.0000000   0.0000000   0.0000000   0.0000000
 NQMom=    2.0440000   2.0440000   2.0440000   0.0000000   0.0000000
 NMagM=    0.4037610   0.4037610   0.4037610   2.7928460   2.7928460
 Leave Link  101 at Fri Apr 25 17:09:51 2014, MaxMem=   65536000 cpu:       0.6
 (Enter /apps/gaussian/g09/l103.exe)

 GradGradGradGradGradGradGradGradGradGradGradGradGradGradGradGradGradGrad
 Berny optimization.
 Initialization pass.
 Trust Radius=3.00D-01 FncErr=1.00D-07 GrdErr=1.00D-07
 Number of steps in this run=   2 maximum allowed number of steps=   2.
 GradGradGradGradGradGradGradGradGradGradGradGradGradGradGradGradGradGrad

 Leave Link  103 at Fri Apr 25 17:09:51 2014, MaxMem=   65536000 cpu:       0.1
 (Enter /apps/gaussian/g09/l202.exe)
                          Input orientation:                          
 ---------------------------------------------------------------------
 Center     Atomic      Atomic             Coordinates (Angstroms)
 Number     Number       Type             X           Y           Z
 ---------------------------------------------------------------------
      1          7           0       -0.144860   -0.095617    0.087053
      2          7           0       -0.217408   -0.005751    1.242741
      3          7           0        0.326074    0.040766   -1.105285
      4          1           0       -0.439507   -0.033610   -1.766015
      5          1           0        0.941825    0.874504   -1.353033
 ---------------------------------------------------------------------
                    Distance matrix (angstroms):
                    1          2          3          4          5
     1  N    0.000000
     2  N    1.161445   0.000000
     3  N    1.289205   2.410552   0.000000
     4  H    1.877371   3.017071   1.014007   0.000000
     5  H    2.048381   2.976023   1.065668   1.703908   0.000000
 Stoichiometry    H2N3(2)
 Framework group  C1[X(H2N3)]
 Deg. of freedom     9
 Full point group                 C1      NOp   1
 Largest Abelian subgroup         C1      NOp   1
 Largest concise Abelian subgroup C1      NOp   1
                         Standard orientation:                         
 ---------------------------------------------------------------------
 Center     Atomic      Atomic             Coordinates (Angstroms)
 Number     Number       Type             X           Y           Z
 ---------------------------------------------------------------------
      1          7           0        0.191413   -0.155384   -0.014466
      2          7           0        1.327030    0.085227    0.023414
      3          7           0       -1.080344    0.041176   -0.092237
      4          1           0       -1.556239   -0.749430    0.328092
      5          1           0       -1.510454    0.952291    0.254927
 ---------------------------------------------------------------------
 Rotational constants (GHZ):    227.8484733     10.9050044     10.5271198
 Leave Link  202 at Fri Apr 25 17:09:51 2014, MaxMem=   65536000 cpu:       0.1
 (Enter /apps/gaussian/g09/l301.exe)
 Standard basis: 6-311G(d,p) (5D, 7F)
 Ernie: Thresh=  0.10000D-02 Tol=  0.10000D-05 Strict=F.
 AO basis set in the form of general basis input (Overlap normalization):
      1 0
 S   6 1.00       0.000000000000
      0.6293480000D+04  0.1969788147D-02
      0.9490440000D+03  0.1496128592D-01
      0.2187760000D+03  0.7350053084D-01
      0.6369160000D+02  0.2489367658D+00
      0.1882820000D+02  0.6024594331D+00
      0.2720230000D+01  0.2562017589D+00
 SP   3 1.00       0.000000000000
      0.3063310000D+02  0.1119060795D+00  0.3831191864D-01
      0.7026140000D+01  0.9216666549D+00  0.2374031155D+00
      0.2112050000D+01 -0.2569191826D-02  0.8175923978D+00
 SP   1 1.00       0.000000000000
      0.6840090000D+00  0.1000000000D+01  0.1000000000D+01
 SP   1 1.00       0.000000000000
      0.2008780000D+00  0.1000000000D+01  0.1000000000D+01
 D   1 1.00       0.000000000000
      0.9130000000D+00  0.1000000000D+01
 ****
      2 0
 S   6 1.00       0.000000000000
      0.6293480000D+04  0.1969788147D-02
      0.9490440000D+03  0.1496128592D-01
      0.2187760000D+03  0.7350053084D-01
      0.6369160000D+02  0.2489367658D+00
      0.1882820000D+02  0.6024594331D+00
      0.2720230000D+01  0.2562017589D+00
 SP   3 1.00       0.000000000000
      0.3063310000D+02  0.1119060795D+00  0.3831191864D-01
      0.7026140000D+01  0.9216666549D+00  0.2374031155D+00
      0.2112050000D+01 -0.2569191826D-02  0.8175923978D+00
 SP   1 1.00       0.000000000000
      0.6840090000D+00  0.1000000000D+01  0.1000000000D+01
 SP   1 1.00       0.000000000000
      0.2008780000D+00  0.1000000000D+01  0.1000000000D+01
 D   1 1.00       0.000000000000
      0.9130000000D+00  0.1000000000D+01
 ****
      3 0
 S   6 1.00       0.000000000000
      0.6293480000D+04  0.1969788147D-02
      0.9490440000D+03  0.1496128592D-01
      0.2187760000D+03  0.7350053084D-01
      0.6369160000D+02  0.2489367658D+00
      0.1882820000D+02  0.6024594331D+00
      0.2720230000D+01  0.2562017589D+00
 SP   3 1.00       0.000000000000
      0.3063310000D+02  0.1119060795D+00  0.3831191864D-01
      0.7026140000D+01  0.9216666549D+00  0.2374031155D+00
      0.2112050000D+01 -0.2569191826D-02  0.8175923978D+00
 SP   1 1.00       0.000000000000
      0.6840090000D+00  0.1000000000D+01  0.1000000000D+01
 SP   1 1.00       0.000000000000
      0.2008780000D+00  0.1000000000D+01  0.1000000000D+01
 D   1 1.00       0.000000000000
      0.9130000000D+00  0.1000000000D+01
 ****
      4 0
 S   3 1.00       0.000000000000
      0.3386500000D+02  0.2549381454D-01
      0.5094790000D+01  0.1903731086D+00
      0.1158790000D+01  0.8521614860D+00
 S   1 1.00       0.000000000000
      0.3258400000D+00  0.1000000000D+01
 S   1 1.00       0.000000000000
      0.1027410000D+00  0.1000000000D+01
 P   1 1.00       0.000000000000
      0.7500000000D+00  0.1000000000D+01
 ****
      5 0
 S   3 1.00       0.000000000000
      0.3386500000D+02  0.2549381454D-01
      0.5094790000D+01  0.1903731086D+00
      0.1158790000D+01  0.8521614860D+00
 S   1 1.00       0.000000000000
      0.3258400000D+00  0.1000000000D+01
 S   1 1.00       0.000000000000
      0.1027410000D+00  0.1000000000D+01
 P   1 1.00       0.000000000000
      0.7500000000D+00  0.1000000000D+01
 ****

 There are    66 symmetry adapted basis functions of A   symmetry.
 Integral buffers will be    131072 words long.
 Raffenetti 2 integral format.
 Two-electron integral symmetry is turned on.
    66 basis functions,   112 primitive gaussians,    69 cartesian basis functions
    12 alpha electrons       11 beta electrons
       nuclear repulsion energy        66.8885859085 Hartrees.
 IExCor= 4235 DFT=T Ex+Corr=M06 ExCW=0 ScaHFX=  0.270000
 ScaDFX=  1.000000  1.000000  1.000000  1.000000 ScalE2=  1.000000  1.000000
 IRadAn=      0 IRanWt=     -1 IRanGd=            0 ICorTp=0
 NAtoms=    5 NActive=    5 NUniq=    5 SFac= 7.50D-01 NAtFMM=   80 NAOKFM=F Big=F
 Leave Link  301 at Fri Apr 25 17:09:51 2014, MaxMem=   65536000 cpu:       0.3
 (Enter /apps/gaussian/g09/l302.exe)
 NPDir=0 NMtPBC=     1 NCelOv=     1 NCel=       1 NClECP=     1 NCelD=      1
         NCelK=      1 NCelE2=     1 NClLst=     1 CellRange=     0.0.
 One-electron integrals computed using PRISM.
 NBasis=    66 RedAO= T  NBF=    66
 NBsUse=    66 1.00D-06 NBFU=    66
 Precomputing XC quadrature grid using
 IXCGrd= 2 IRadAn=           0 IRanWt=          -1 IRanGd=           0 AccXCQ= 1.00D-10.
 NRdTot=     311 NPtTot=       39306 NUsed=       41561 NTot=       41593
 NSgBfM=    69    69    69    69    69 NAtAll=     5     5.
 Leave Link  302 at Fri Apr 25 17:09:51 2014, MaxMem=   65536000 cpu:       1.4
 (Enter /apps/gaussian/g09/l303.exe)
 DipDrv:  MaxL=1.
 Leave Link  303 at Fri Apr 25 17:09:51 2014, MaxMem=   65536000 cpu:       0.2
 (Enter /apps/gaussian/g09/l401.exe)
 Harris functional with IExCor= 1009 diagonalized for initial guess.
 ExpMin= 1.03D-01 ExpMax= 6.29D+03 ExpMxC= 9.49D+02 IAcc=1 IRadAn=         1 AccDes= 0.00D+00
 HarFok:  IExCor= 1009 AccDes= 0.00D+00 IRadAn=         1 IDoV= 1
 ScaDFX=  1.000000  1.000000  1.000000  1.000000
 FoFCou: FMM=F IPFlag=           0 FMFlag=      100000 FMFlg1=           0
         NFxFlg=           0 DoJE=T BraDBF=F KetDBF=T FulRan=T
         Omega=  0.000000  0.000000  1.000000  0.000000  0.000000 ICntrl=     500 IOpCl=  0
         NMat0=    1 NMatS0=    1 NMatT0=    0 NMatD0=    1 NMtDS0=    0 NMtDT0=    0
         I1Cent=           4 NGrid=           0.
 Petite list used in FoFCou.
 Harris En= -165.227941194279    
 Initial guess orbital symmetries:
 Alpha Orbitals:
       Occupied  (A) (A) (A) (A) (A) (A) (A) (A) (A) (A) (A) (A)
       Virtual   (A) (A) (A) (A) (A) (A) (A) (A) (A) (A) (A) (A)
                 (A) (A) (A) (A) (A) (A) (A) (A) (A) (A) (A) (A)
                 (A) (A) (A) (A) (A) (A) (A) (A) (A) (A) (A) (A)
                 (A) (A) (A) (A) (A) (A) (A) (A) (A) (A) (A) (A)
                 (A) (A) (A) (A) (A) (A)
 Beta  Orbitals:
       Occupied  (A) (A) (A) (A) (A) (A) (A) (A) (A) (A) (A)
       Virtual   (A) (A) (A) (A) (A) (A) (A) (A) (A) (A) (A) (A)
                 (A) (A) (A) (A) (A) (A) (A) (A) (A) (A) (A) (A)
                 (A) (A) (A) (A) (A) (A) (A) (A) (A) (A) (A) (A)
                 (A) (A) (A) (A) (A) (A) (A) (A) (A) (A) (A) (A)
                 (A) (A) (A) (A) (A) (A) (A)
 The electronic state of the initial guess is 2-A.
 Initial guess <Sx>= 0.0000 <Sy>= 0.0000 <Sz>= 0.5000 <S**2>= 0.7500 S= 0.5000
 Leave Link  401 at Fri Apr 25 17:09:52 2014, MaxMem=   65536000 cpu:       1.7
 (Enter /apps/gaussian/g09/l502.exe)
 UHF open shell SCF:
 Requested convergence on RMS density matrix=1.00D-08 within 128 cycles.
 Requested convergence on MAX density matrix=1.00D-06.
 Requested convergence on             energy=1.00D-06.
 No special actions if energy rises.
 Using DIIS extrapolation, IDIIS=  1040.
 Integral symmetry usage will be decided dynamically.
        41503 words used for storage of precomputed grid.
 Keep R1 and R2 ints in memory in canonical form, NReq=6799076.
 IEnd=       75273 IEndB=       75273 NGot=    65536000 MDV=    59647530
 LenX=    59647530 LenY=    59642328
 Symmetry not used in FoFDir.
 MinBra= 0 MaxBra= 2 Meth= 1.
 IRaf=       0 NMat=   1 IRICut=       1 DoRegI=T DoRafI=F ISym2E= 0 JSym2E=0.
 Integral accuracy reduced to 1.0D-05 until final iterations.

 Cycle   1  Pass 0  IDiag  1:
 E= -165.219145804033    
 DIIS: error= 3.01D-02 at cycle   1 NSaved=   1.
 NSaved= 1 IEnMin= 1 EnMin= -165.219145804033     IErMin= 1 ErrMin= 3.01D-02
 ErrMax= 3.01D-02 EMaxC= 1.00D-01 BMatC= 2.18D-01 BMatP= 2.18D-01
 IDIUse=3 WtCom= 6.99D-01 WtEn= 3.01D-01
 Coeff-Com:  0.100D+01
 Coeff-En:   0.100D+01
 Coeff:      0.100D+01
 Gap=     0.155 Goal=   None    Shift=    0.000
 Gap=     0.301 Goal=   None    Shift=    0.000
 GapD=    0.155 DampG=1.000 DampE=0.500 DampFc=0.5000 IDamp=-1.
 Damping current iteration by 5.00D-01
 RMSDP=1.05D-02 MaxDP=3.05D-01              OVMax= 2.58D-01

 Cycle   2  Pass 0  IDiag  1:
 E= -165.231197954998     Delta-E=       -0.012052150964 Rises=F Damp=T
 DIIS: error= 1.33D-02 at cycle   2 NSaved=   2.
 NSaved= 2 IEnMin= 2 EnMin= -165.231197954998     IErMin= 2 ErrMin= 1.33D-02
 ErrMax= 1.33D-02 EMaxC= 1.00D-01 BMatC= 4.78D-02 BMatP= 2.18D-01
 IDIUse=3 WtCom= 8.67D-01 WtEn= 1.33D-01
 Coeff-Com:  0.245D+00 0.755D+00
 Coeff-En:   0.367D+00 0.633D+00
 Coeff:      0.261D+00 0.739D+00
 Gap=     0.159 Goal=   None    Shift=    0.000
 Gap=     0.292 Goal=   None    Shift=    0.000
 RMSDP=2.54D-03 MaxDP=7.85D-02 DE=-1.21D-02 OVMax= 1.74D-01

 Cycle   3  Pass 0  IDiag  1:
 E= -165.261849764425     Delta-E=       -0.030651809427 Rises=F Damp=F
 DIIS: error= 1.33D-02 at cycle   3 NSaved=   3.
 NSaved= 3 IEnMin= 3 EnMin= -165.261849764425     IErMin= 2 ErrMin= 1.33D-02
 ErrMax= 1.33D-02 EMaxC= 1.00D-01 BMatC= 3.93D-02 BMatP= 4.78D-02
 IDIUse=3 WtCom= 8.67D-01 WtEn= 1.33D-01
 Coeff-Com:  0.768D-01 0.456D+00 0.467D+00
 Coeff-En:   0.000D+00 0.000D+00 0.100D+01
 Coeff:      0.666D-01 0.395D+00 0.538D+00
 Gap=     0.151 Goal=   None    Shift=    0.000
 Gap=     0.294 Goal=   None    Shift=    0.000
 RMSDP=1.41D-03 MaxDP=1.91D-02 DE=-3.07D-02 OVMax= 4.96D-02

 Cycle   4  Pass 0  IDiag  1:
 E= -165.267880214619     Delta-E=       -0.006030450194 Rises=F Damp=F
 DIIS: error= 7.08D-03 at cycle   4 NSaved=   4.
 NSaved= 4 IEnMin= 4 EnMin= -165.267880214619     IErMin= 4 ErrMin= 7.08D-03
 ErrMax= 7.08D-03 EMaxC= 1.00D-01 BMatC= 9.89D-03 BMatP= 3.93D-02
 IDIUse=3 WtCom= 9.29D-01 WtEn= 7.08D-02
 Coeff-Com:  0.181D-01 0.167D-01 0.326D+00 0.639D+00
 Coeff-En:   0.000D+00 0.000D+00 0.244D+00 0.756D+00
 Coeff:      0.168D-01 0.155D-01 0.320D+00 0.647D+00
 Gap=     0.154 Goal=   None    Shift=    0.000
 Gap=     0.289 Goal=   None    Shift=    0.000
 RMSDP=7.02D-04 MaxDP=1.72D-02 DE=-6.03D-03 OVMax= 1.97D-02

 Cycle   5  Pass 0  IDiag  1:
 E= -165.269895209905     Delta-E=       -0.002014995286 Rises=F Damp=F
 DIIS: error= 9.78D-04 at cycle   5 NSaved=   5.
 NSaved= 5 IEnMin= 5 EnMin= -165.269895209905     IErMin= 5 ErrMin= 9.78D-04
 ErrMax= 9.78D-04 EMaxC= 1.00D-01 BMatC= 1.54D-04 BMatP= 9.89D-03
 IDIUse=3 WtCom= 9.90D-01 WtEn= 9.78D-03
 Coeff-Com:  0.278D-02-0.201D-01 0.910D-01 0.246D+00 0.680D+00
 Coeff-En:   0.000D+00 0.000D+00 0.000D+00 0.000D+00 0.100D+01
 Coeff:      0.275D-02-0.199D-01 0.901D-01 0.244D+00 0.684D+00
 Gap=     0.154 Goal=   None    Shift=    0.000
 Gap=     0.290 Goal=   None    Shift=    0.000
 RMSDP=1.02D-04 MaxDP=1.56D-03 DE=-2.01D-03 OVMax= 3.87D-03

 Cycle   6  Pass 0  IDiag  1:
 E= -165.269938917117     Delta-E=       -0.000043707211 Rises=F Damp=F
 DIIS: error= 5.48D-04 at cycle   6 NSaved=   6.
 NSaved= 6 IEnMin= 6 EnMin= -165.269938917117     IErMin= 6 ErrMin= 5.48D-04
 ErrMax= 5.48D-04 EMaxC= 1.00D-01 BMatC= 3.47D-05 BMatP= 1.54D-04
 IDIUse=3 WtCom= 9.95D-01 WtEn= 5.48D-03
 Coeff-Com: -0.286D-02-0.113D-01-0.341D-01-0.510D-01 0.284D+00 0.816D+00
 Coeff-En:   0.000D+00 0.000D+00 0.000D+00 0.000D+00 0.000D+00 0.100D+01
 Coeff:     -0.285D-02-0.112D-01-0.339D-01-0.507D-01 0.282D+00 0.817D+00
 Gap=     0.155 Goal=   None    Shift=    0.000
 Gap=     0.290 Goal=   None    Shift=    0.000
 RMSDP=1.20D-04 MaxDP=3.40D-03 DE=-4.37D-05 OVMax= 3.42D-03

 Cycle   7  Pass 0  IDiag  1:
 E= -165.269958490910     Delta-E=       -0.000019573794 Rises=F Damp=F
 DIIS: error= 2.37D-04 at cycle   7 NSaved=   7.
 NSaved= 7 IEnMin= 7 EnMin= -165.269958490910     IErMin= 7 ErrMin= 2.37D-04
 ErrMax= 2.37D-04 EMaxC= 1.00D-01 BMatC= 5.84D-06 BMatP= 3.47D-05
 IDIUse=3 WtCom= 9.98D-01 WtEn= 2.37D-03
 Coeff-Com: -0.327D-03 0.267D-02-0.185D-01-0.508D-01-0.171D+00 0.131D+00
 Coeff-Com:  0.111D+01
 Coeff-En:   0.000D+00 0.000D+00 0.000D+00 0.000D+00 0.000D+00 0.000D+00
 Coeff-En:   0.100D+01
 Coeff:     -0.326D-03 0.266D-02-0.184D-01-0.507D-01-0.171D+00 0.131D+00
 Coeff:      0.111D+01
 Gap=     0.154 Goal=   None    Shift=    0.000
 Gap=     0.291 Goal=   None    Shift=    0.000
 RMSDP=4.89D-05 MaxDP=1.05D-03 DE=-1.96D-05 OVMax= 2.06D-03

 Cycle   8  Pass 0  IDiag  1:
 E= -165.269964241815     Delta-E=       -0.000005750905 Rises=F Damp=F
 DIIS: error= 8.57D-05 at cycle   8 NSaved=   8.
 NSaved= 8 IEnMin= 8 EnMin= -165.269964241815     IErMin= 8 ErrMin= 8.57D-05
 ErrMax= 8.57D-05 EMaxC= 1.00D-01 BMatC= 5.29D-07 BMatP= 5.84D-06
 IDIUse=1 WtCom= 1.00D+00 WtEn= 0.00D+00
 Coeff-Com:  0.617D-03 0.395D-03 0.743D-02 0.153D-01-0.109D-01-0.130D+00
 Coeff-Com: -0.224D+00 0.134D+01
 Coeff:      0.617D-03 0.395D-03 0.743D-02 0.153D-01-0.109D-01-0.130D+00
 Coeff:     -0.224D+00 0.134D+01
 Gap=     0.154 Goal=   None    Shift=    0.000
 Gap=     0.291 Goal=   None    Shift=    0.000
 RMSDP=2.13D-05 MaxDP=3.78D-04 DE=-5.75D-06 OVMax= 1.19D-03

 Cycle   9  Pass 0  IDiag  1:
 E= -165.269965227908     Delta-E=       -0.000000986093 Rises=F Damp=F
 DIIS: error= 2.70D-05 at cycle   9 NSaved=   9.
 NSaved= 9 IEnMin= 9 EnMin= -165.269965227908     IErMin= 9 ErrMin= 2.70D-05
 ErrMax= 2.70D-05 EMaxC= 1.00D-01 BMatC= 7.78D-08 BMatP= 5.29D-07
 IDIUse=1 WtCom= 1.00D+00 WtEn= 0.00D+00
 Coeff-Com: -0.342D-04-0.357D-04 0.172D-02 0.595D-02 0.239D-01-0.181D-01
 Coeff-Com: -0.129D+00-0.734D-01 0.119D+01
 Coeff:     -0.342D-04-0.357D-04 0.172D-02 0.595D-02 0.239D-01-0.181D-01
 Coeff:     -0.129D+00-0.734D-01 0.119D+01
 Gap=     0.154 Goal=   None    Shift=    0.000
 Gap=     0.290 Goal=   None    Shift=    0.000
 RMSDP=6.72D-06 MaxDP=1.19D-04 DE=-9.86D-07 OVMax= 3.58D-04

 Initial convergence to 1.0D-05 achieved.  Increase integral accuracy.
 Cycle  10  Pass 1  IDiag  1:
 E= -165.269932396484     Delta-E=        0.000032831424 Rises=F Damp=F
 DIIS: error= 1.65D-04 at cycle   1 NSaved=   1.
 NSaved= 1 IEnMin= 1 EnMin= -165.269932396484     IErMin= 1 ErrMin= 1.65D-04
 ErrMax= 1.65D-04 EMaxC= 1.00D-01 BMatC= 8.22D-06 BMatP= 8.22D-06
 IDIUse=3 WtCom= 9.98D-01 WtEn= 1.65D-03
 Coeff-Com:  0.100D+01
 Coeff-En:   0.100D+01
 Coeff:      0.100D+01
 Gap=     0.154 Goal=   None    Shift=    0.000
 Gap=     0.291 Goal=   None    Shift=    0.000
 RMSDP=6.72D-06 MaxDP=1.19D-04 DE= 3.28D-05 OVMax= 3.74D-04

 Cycle  11  Pass 1  IDiag  1:
 E= -165.269934189744     Delta-E=       -0.000001793260 Rises=F Damp=F
 DIIS: error= 1.41D-05 at cycle   2 NSaved=   2.
 NSaved= 2 IEnMin= 2 EnMin= -165.269934189744     IErMin= 2 ErrMin= 1.41D-05
 ErrMax= 1.41D-05 EMaxC= 1.00D-01 BMatC= 5.87D-08 BMatP= 8.22D-06
 IDIUse=1 WtCom= 1.00D+00 WtEn= 0.00D+00
 Coeff-Com: -0.152D-01 0.102D+01
 Coeff:     -0.152D-01 0.102D+01
 Gap=     0.154 Goal=   None    Shift=    0.000
 Gap=     0.291 Goal=   None    Shift=    0.000
 RMSDP=6.04D-06 MaxDP=9.61D-05 DE=-1.79D-06 OVMax= 5.91D-05

 Cycle  12  Pass 1  IDiag  1:
 E= -165.269934199856     Delta-E=       -0.000000010112 Rises=F Damp=F
 DIIS: error= 1.35D-05 at cycle   3 NSaved=   3.
 NSaved= 3 IEnMin= 3 EnMin= -165.269934199856     IErMin= 3 ErrMin= 1.35D-05
 ErrMax= 1.35D-05 EMaxC= 1.00D-01 BMatC= 3.40D-08 BMatP= 5.87D-08
 IDIUse=1 WtCom= 1.00D+00 WtEn= 0.00D+00
 Coeff-Com: -0.129D-01 0.425D+00 0.588D+00
 Coeff:     -0.129D-01 0.425D+00 0.588D+00
 Gap=     0.154 Goal=   None    Shift=    0.000
 Gap=     0.291 Goal=   None    Shift=    0.000
 RMSDP=1.42D-06 MaxDP=2.41D-05 DE=-1.01D-08 OVMax= 4.21D-05

 Cycle  13  Pass 1  IDiag  1:
 E= -165.269934202950     Delta-E=       -0.000000003094 Rises=F Damp=F
 DIIS: error= 8.74D-06 at cycle   4 NSaved=   4.
 NSaved= 4 IEnMin= 4 EnMin= -165.269934202950     IErMin= 4 ErrMin= 8.74D-06
 ErrMax= 8.74D-06 EMaxC= 1.00D-01 BMatC= 1.84D-08 BMatP= 3.40D-08
 IDIUse=1 WtCom= 1.00D+00 WtEn= 0.00D+00
 Coeff-Com: -0.599D-02 0.115D+00 0.413D+00 0.478D+00
 Coeff:     -0.599D-02 0.115D+00 0.413D+00 0.478D+00
 Gap=     0.154 Goal=   None    Shift=    0.000
 Gap=     0.291 Goal=   None    Shift=    0.000
 RMSDP=8.80D-07 MaxDP=2.00D-05 DE=-3.09D-09 OVMax= 2.32D-05

 Cycle  14  Pass 1  IDiag  1:
 E= -165.269934206161     Delta-E=       -0.000000003212 Rises=F Damp=F
 DIIS: error= 3.06D-06 at cycle   5 NSaved=   5.
 NSaved= 5 IEnMin= 5 EnMin= -165.269934206161     IErMin= 5 ErrMin= 3.06D-06
 ErrMax= 3.06D-06 EMaxC= 1.00D-01 BMatC= 1.38D-09 BMatP= 1.84D-08
 IDIUse=1 WtCom= 1.00D+00 WtEn= 0.00D+00
 Coeff-Com: -0.203D-02 0.165D-01 0.162D+00 0.271D+00 0.553D+00
 Coeff:     -0.203D-02 0.165D-01 0.162D+00 0.271D+00 0.553D+00
 Gap=     0.154 Goal=   None    Shift=    0.000
 Gap=     0.291 Goal=   None    Shift=    0.000
 RMSDP=2.98D-07 MaxDP=3.63D-06 DE=-3.21D-09 OVMax= 1.07D-05

 Cycle  15  Pass 1  IDiag  1:
 E= -165.269934206448     Delta-E=       -0.000000000286 Rises=F Damp=F
 DIIS: error= 1.06D-06 at cycle   6 NSaved=   6.
 NSaved= 6 IEnMin= 6 EnMin= -165.269934206448     IErMin= 6 ErrMin= 1.06D-06
 ErrMax= 1.06D-06 EMaxC= 1.00D-01 BMatC= 2.32D-10 BMatP= 1.38D-09
 IDIUse=1 WtCom= 1.00D+00 WtEn= 0.00D+00
 Coeff-Com: -0.731D-04-0.121D-01 0.185D-01 0.620D-01 0.319D+00 0.613D+00
 Coeff:     -0.731D-04-0.121D-01 0.185D-01 0.620D-01 0.319D+00 0.613D+00
 Gap=     0.154 Goal=   None    Shift=    0.000
 Gap=     0.291 Goal=   None    Shift=    0.000
 RMSDP=1.70D-07 MaxDP=3.46D-06 DE=-2.86D-10 OVMax= 6.66D-06

 Cycle  16  Pass 1  IDiag  1:
 E= -165.269934206515     Delta-E=       -0.000000000067 Rises=F Damp=F
 DIIS: error= 2.44D-07 at cycle   7 NSaved=   7.
 NSaved= 7 IEnMin= 7 EnMin= -165.269934206515     IErMin= 7 ErrMin= 2.44D-07
 ErrMax= 2.44D-07 EMaxC= 1.00D-01 BMatC= 9.58D-12 BMatP= 2.32D-10
 IDIUse=1 WtCom= 1.00D+00 WtEn= 0.00D+00
 Coeff-Com:  0.236D-03-0.915D-03-0.181D-01-0.402D-01-0.966D-01-0.396D-01
 Coeff-Com:  0.120D+01
 Coeff:      0.236D-03-0.915D-03-0.181D-01-0.402D-01-0.966D-01-0.396D-01
 Coeff:      0.120D+01
 Gap=     0.154 Goal=   None    Shift=    0.000
 Gap=     0.291 Goal=   None    Shift=    0.000
 RMSDP=1.22D-07 MaxDP=1.65D-06 DE=-6.75D-11 OVMax= 7.00D-06

 Cycle  17  Pass 1  IDiag  1:
 E= -165.269934206531     Delta-E=       -0.000000000016 Rises=F Damp=F
 DIIS: error= 1.10D-07 at cycle   8 NSaved=   8.
 NSaved= 8 IEnMin= 8 EnMin= -165.269934206531     IErMin= 8 ErrMin= 1.10D-07
 ErrMax= 1.10D-07 EMaxC= 1.00D-01 BMatC= 1.95D-12 BMatP= 9.58D-12
 IDIUse=1 WtCom= 1.00D+00 WtEn= 0.00D+00
 Coeff-Com:  0.375D-04 0.133D-02-0.385D-02-0.126D-01-0.585D-01-0.114D+00
 Coeff-Com:  0.917D-01 0.110D+01
 Coeff:      0.375D-04 0.133D-02-0.385D-02-0.126D-01-0.585D-01-0.114D+00
 Coeff:      0.917D-01 0.110D+01
 Gap=     0.154 Goal=   None    Shift=    0.000
 Gap=     0.291 Goal=   None    Shift=    0.000
 RMSDP=6.80D-08 MaxDP=9.32D-07 DE=-1.63D-11 OVMax= 4.00D-06

 Cycle  18  Pass 1  IDiag  1:
 E= -165.269934206536     Delta-E=       -0.000000000004 Rises=F Damp=F
 DIIS: error= 5.09D-08 at cycle   9 NSaved=   9.
 NSaved= 9 IEnMin= 9 EnMin= -165.269934206536     IErMin= 9 ErrMin= 5.09D-08
 ErrMax= 5.09D-08 EMaxC= 1.00D-01 BMatC= 4.24D-13 BMatP= 1.95D-12
 IDIUse=1 WtCom= 1.00D+00 WtEn= 0.00D+00
 Coeff-Com: -0.450D-04 0.741D-03 0.271D-02 0.568D-02 0.278D-02-0.226D-01
 Coeff-Com: -0.205D+00 0.226D+00 0.989D+00
 Coeff:     -0.450D-04 0.741D-03 0.271D-02 0.568D-02 0.278D-02-0.226D-01
 Coeff:     -0.205D+00 0.226D+00 0.989D+00
 Gap=     0.154 Goal=   None    Shift=    0.000
 Gap=     0.291 Goal=   None    Shift=    0.000
 RMSDP=3.43D-08 MaxDP=5.07D-07 DE=-4.09D-12 OVMax= 1.97D-06

 Cycle  19  Pass 1  IDiag  1:
 E= -165.269934206536     Delta-E=       -0.000000000001 Rises=F Damp=F
 DIIS: error= 2.05D-08 at cycle  10 NSaved=  10.
 NSaved=10 IEnMin=10 EnMin= -165.269934206536     IErMin=10 ErrMin= 2.05D-08
 ErrMax= 2.05D-08 EMaxC= 1.00D-01 BMatC= 1.13D-13 BMatP= 4.24D-13
 IDIUse=1 WtCom= 1.00D+00 WtEn= 0.00D+00
 Coeff-Com: -0.237D-04-0.594D-04 0.173D-02 0.520D-02 0.147D-01 0.168D-01
 Coeff-Com: -0.789D-01-0.192D+00 0.352D+00 0.880D+00
 Coeff:     -0.237D-04-0.594D-04 0.173D-02 0.520D-02 0.147D-01 0.168D-01
 Coeff:     -0.789D-01-0.192D+00 0.352D+00 0.880D+00
 Gap=     0.154 Goal=   None    Shift=    0.000
 Gap=     0.291 Goal=   None    Shift=    0.000
 RMSDP=1.39D-08 MaxDP=2.05D-07 DE=-5.97D-13 OVMax= 7.69D-07

 Cycle  20  Pass 1  IDiag  1:
 E= -165.269934206536     Delta-E=       -0.000000000000 Rises=F Damp=F
 DIIS: error= 5.83D-09 at cycle  11 NSaved=  11.
 NSaved=11 IEnMin=11 EnMin= -165.269934206536     IErMin=11 ErrMin= 5.83D-09
 ErrMax= 5.83D-09 EMaxC= 1.00D-01 BMatC= 8.12D-15 BMatP= 1.13D-13
 IDIUse=1 WtCom= 1.00D+00 WtEn= 0.00D+00
 Coeff-Com:  0.476D-05-0.101D-03-0.415D-03-0.535D-03 0.320D-03 0.275D-02
 Coeff-Com:  0.317D-01-0.502D-01-0.130D+00 0.712D-02 0.114D+01
 Coeff:      0.476D-05-0.101D-03-0.415D-03-0.535D-03 0.320D-03 0.275D-02
 Coeff:      0.317D-01-0.502D-01-0.130D+00 0.712D-02 0.114D+01
 Gap=     0.154 Goal=   None    Shift=    0.000
 Gap=     0.291 Goal=   None    Shift=    0.000
 RMSDP=5.40D-09 MaxDP=1.11D-07 DE=-5.68D-14 OVMax= 2.81D-07

 SCF Done:  E(UM06) =  -165.269934207     A.U. after   20 cycles
             Convg  =    0.5403D-08             -V/T =  2.0015
 <Sx>= 0.0000 <Sy>= 0.0000 <Sz>= 0.5000 <S**2>= 0.7538 S= 0.5019
 <L.S>=  0.00000000000    
 KE= 1.650254792682D+02 PE=-5.209960473138D+02 EE= 1.238120479307D+02
 Annihilation of the first spin contaminant:
 S**2 before annihilation     0.7538,   after     0.7500
 Leave Link  502 at Fri Apr 25 17:09:53 2014, MaxMem=   65536000 cpu:      17.1
 (Enter /apps/gaussian/g09/l801.exe)
 Range of M.O.s used for correlation:     1    66
 NBasis=    66 NAE=    12 NBE=    11 NFC=     0 NFV=     0
 NROrb=     66 NOA=    12 NOB=    11 NVA=    54 NVB=    55
 Leave Link  801 at Fri Apr 25 17:09:53 2014, MaxMem=   65536000 cpu:       0.2
 (Enter /apps/gaussian/g09/l1101.exe)
 Using compressed storage, NAtomX=     5.
 Will process   6 centers per pass.
 Leave Link 1101 at Fri Apr 25 17:09:53 2014, MaxMem=   65536000 cpu:       1.4
 (Enter /apps/gaussian/g09/l1102.exe)
 Symmetrizing basis deriv contribution to polar:
 IMax=3 JMax=2 DiffMx= 0.00D+00
 Leave Link 1102 at Fri Apr 25 17:09:53 2014, MaxMem=   65536000 cpu:       0.1
 (Enter /apps/gaussian/g09/l1110.exe)
 Forming Gx(P) for the SCF density, NAtomX=     5.
 Integral derivatives from FoFDir/FoFCou, PRISM(SPDF).
 Do as many integral derivatives as possible in FoFDir.
 G2DrvN: MDV=      65535856.
 G2DrvN: will do     6 centers at a time, making    1 passes doing MaxLOS=2.
 Calling FoFCou, ICntrl=  3107 FMM=F I1Cent=   0 AccDes= 0.00D+00.
 FoFCou: FMM=F IPFlag=           0 FMFlag=      100000 FMFlg1=           0
         NFxFlg=           0 DoJE=F BraDBF=F KetDBF=F FulRan=T
         Omega=  0.000000  0.000000  1.000000  0.000000  0.000000 ICntrl=    3107 IOpCl=  1
         NMat0=    1 NMatS0=    1 NMatT0=    0 NMatD0=    1 NMtDS0=    0 NMtDT0=    0
         I1Cent=           0 NGrid=           0.
 Symmetry not used in FoFCou.
 FoFDir/FoFCou used for L=0 through L=2.
 End of G2Drv Frequency-dependent properties file   721 does not exist.
 End of G2Drv Frequency-dependent properties file   722 does not exist.
 Leave Link 1110 at Fri Apr 25 17:09:55 2014, MaxMem=   65536000 cpu:      17.9
 (Enter /apps/gaussian/g09/l1002.exe)
 Minotr:  UHF open shell wavefunction.
          IDoAtm=11111
          Direct CPHF calculation.
          Differentiating once with respect to electric field.
                with respect to dipole field.
          Differentiating once with respect to nuclear coordinates.
          Requested convergence is 1.0D-08 RMS, and 1.0D-07 maximum.
          Secondary convergence is 1.0D-12 RMS, and 1.0D-12 maximum.
          NewPWx=T KeepS1=F KeepF1=F KeepIn=T MapXYZ=F SortEE=F KeepMc=T.
          MDV=      65535946 using IRadAn=       2.
 Generate precomputed XC quadrature information.
          Keep R1 and R2 ints in memory in canonical form, NReq=6656460.
 Symmetry not used in FoFDir.
 MinBra= 0 MaxBra= 2 Meth= 1.
 IRaf=       0 NMat=   1 IRICut=       1 DoRegI=T DoRafI=F ISym2E= 0 JSym2E=0.
          Solving linear equations simultaneously, MaxMat=       0.
          There are    18 degrees of freedom in the 1st order CPHF.  IDoFFX=5.
     15 vectors produced by pass  0 Test12= 6.96D-15 5.56D-09 XBig12= 1.04D+02 4.20D+00.
 AX will form    15 AO Fock derivatives at one time.
     15 vectors produced by pass  1 Test12= 6.96D-15 5.56D-09 XBig12= 3.10D+01 1.57D+00.
     15 vectors produced by pass  2 Test12= 6.96D-15 5.56D-09 XBig12= 8.84D-01 2.12D-01.
     15 vectors produced by pass  3 Test12= 6.96D-15 5.56D-09 XBig12= 1.05D-02 2.21D-02.
     15 vectors produced by pass  4 Test12= 6.96D-15 5.56D-09 XBig12= 1.52D-04 2.98D-03.
     15 vectors produced by pass  5 Test12= 6.96D-15 5.56D-09 XBig12= 1.90D-06 3.21D-04.
     14 vectors produced by pass  6 Test12= 6.96D-15 5.56D-09 XBig12= 1.14D-08 1.59D-05.
      7 vectors produced by pass  7 Test12= 6.96D-15 5.56D-09 XBig12= 4.25D-11 1.02D-06.
      2 vectors produced by pass  8 Test12= 6.96D-15 5.56D-09 XBig12= 1.75D-13 6.71D-08.
 Inverted reduced A of dimension   113 with in-core refinement.
 FullF1:  Do perturbations    1 to     3.
 Isotropic polarizability for W=    0.000000       23.62 Bohr**3.
 End of Minotr Frequency-dependent properties file   721 does not exist.
 End of Minotr Frequency-dependent properties file   722 does not exist.
 Leave Link 1002 at Fri Apr 25 17:09:57 2014, MaxMem=   65536000 cpu:      27.6
 (Enter /apps/gaussian/g09/l601.exe)
 Copying SCF densities to generalized density rwf, IOpCl= 1 IROHF=0.

 **********************************************************************

            Population analysis using the SCF density.

 **********************************************************************

 Orbital symmetries:
 Alpha Orbitals:
       Occupied  (A) (A) (A) (A) (A) (A) (A) (A) (A) (A) (A) (A)
       Virtual   (A) (A) (A) (A) (A) (A) (A) (A) (A) (A) (A) (A)
                 (A) (A) (A) (A) (A) (A) (A) (A) (A) (A) (A) (A)
                 (A) (A) (A) (A) (A) (A) (A) (A) (A) (A) (A) (A)
                 (A) (A) (A) (A) (A) (A) (A) (A) (A) (A) (A) (A)
                 (A) (A) (A) (A) (A) (A)
 Beta  Orbitals:
       Occupied  (A) (A) (A) (A) (A) (A) (A) (A) (A) (A) (A)
       Virtual   (A) (A) (A) (A) (A) (A) (A) (A) (A) (A) (A) (A)
                 (A) (A) (A) (A) (A) (A) (A) (A) (A) (A) (A) (A)
                 (A) (A) (A) (A) (A) (A) (A) (A) (A) (A) (A) (A)
                 (A) (A) (A) (A) (A) (A) (A) (A) (A) (A) (A) (A)
                 (A) (A) (A) (A) (A) (A) (A)
 The electronic state is 2-A.
 Alpha  occ. eigenvalues --  -14.48353 -14.47082 -14.41675  -1.11644  -0.97469
 Alpha  occ. eigenvalues --   -0.68035  -0.58486  -0.49099  -0.45335  -0.41705
 Alpha  occ. eigenvalues --   -0.31742  -0.15026
 Alpha virt. eigenvalues --    0.00413   0.02691   0.07189   0.20375   0.33282
 Alpha virt. eigenvalues --    0.35326   0.43683   0.49061   0.51889   0.57940
 Alpha virt. eigenvalues --    0.61015   0.66252   0.70003   0.70531   0.74001
 Alpha virt. eigenvalues --    0.77288   0.85768   0.96575   1.14112   1.27049
 Alpha virt. eigenvalues --    1.37218   1.51552   1.61952   1.65365   1.69187
 Alpha virt. eigenvalues --    1.73499   1.75750   1.88491   1.95296   2.09732
 Alpha virt. eigenvalues --    2.12454   2.26991   2.35483   2.37076   2.48411
 Alpha virt. eigenvalues --    2.49717   2.64721   2.71501   2.86168   3.06348
 Alpha virt. eigenvalues --    3.15867   3.44487   3.57510   3.64143   3.86953
 Alpha virt. eigenvalues --    3.91040   3.93189   4.20971   4.33234   4.58120
 Alpha virt. eigenvalues --    5.17075  35.05438  35.43839  36.00675
  Beta  occ. eigenvalues --  -14.47824 -14.46989 -14.40509  -1.09741  -0.95493
  Beta  occ. eigenvalues --   -0.66741  -0.57255  -0.48277  -0.41640  -0.37685
  Beta  occ. eigenvalues --   -0.31009
  Beta virt. eigenvalues --   -0.01954   0.01665   0.03510   0.08189   0.21338
  Beta virt. eigenvalues --    0.33577   0.35231   0.43908   0.49145   0.51932
  Beta virt. eigenvalues --    0.58808   0.61192   0.66515   0.70725   0.71848
  Beta virt. eigenvalues --    0.74301   0.77722   0.86566   0.96812   1.14079
  Beta virt. eigenvalues --    1.26786   1.36671   1.50545   1.61706   1.65181
  Beta virt. eigenvalues --    1.69809   1.75366   1.76961   1.89512   1.95483
  Beta virt. eigenvalues --    2.12991   2.15083   2.27415   2.33267   2.37917
  Beta virt. eigenvalues --    2.48354   2.49706   2.65038   2.71250   2.86716
  Beta virt. eigenvalues --    3.06757   3.18240   3.44426   3.58341   3.70348
  Beta virt. eigenvalues --    3.87437   3.94646   3.98043   4.20407   4.34341
  Beta virt. eigenvalues --    4.56582   5.16991  35.06511  35.44107  36.01863
     Alpha Molecular Orbital Coefficients:
                           1         2         3         4         5
                           O         O         O         O         O
     Eigenvalues --   -14.48353 -14.47082 -14.41675  -1.11644  -0.97469
   1 1   N  1S          0.55743  -0.00676  -0.00351  -0.09896   0.01557
   2        2S          0.46475  -0.00548  -0.00237  -0.15375   0.02369
   3        2PX        -0.00065  -0.00063   0.00104   0.01387  -0.15200
   4        2PY         0.00068   0.00005   0.00016   0.02371  -0.00979
   5        2PZ        -0.00008  -0.00004   0.00003   0.00077  -0.00371
   6        3S          0.01752  -0.00063  -0.00230   0.43270  -0.06404
   7        3PX         0.00257   0.00194  -0.00507   0.00731  -0.20830
   8        3PY         0.00102  -0.00012  -0.00086   0.03519  -0.01177
   9        3PZ         0.00010   0.00014  -0.00017   0.00078  -0.00469
  10        4S         -0.00603   0.00155   0.00336   0.21490  -0.02653
  11        4PX         0.00078  -0.00534   0.00662  -0.01231  -0.03705
  12        4PY        -0.00087   0.00008   0.00056   0.01416  -0.00582
  13        4PZ        -0.00010  -0.00032   0.00027   0.00152  -0.00052
  14        5D 0       -0.00183   0.00055   0.00123  -0.01276  -0.00130
  15        5D+1        0.00027  -0.00016  -0.00014   0.00121  -0.00054
  16        5D-1        0.00001   0.00001  -0.00003  -0.00005  -0.00019
  17        5D+2        0.00311  -0.00093  -0.00196   0.01876   0.00198
  18        5D-2        0.00053   0.00030  -0.00094   0.00135  -0.00726
  19 2   N  1S          0.00334  -0.00017   0.55734  -0.05960   0.07001
  20        2S          0.00344  -0.00013   0.46524  -0.09228   0.10939
  21        2PX        -0.00081  -0.00005  -0.00163  -0.07053   0.07144
  22        2PY        -0.00022   0.00004  -0.00021  -0.01314   0.01873
  23        2PZ        -0.00002  -0.00001  -0.00006  -0.00225   0.00249
  24        3S         -0.00250  -0.00003   0.01658   0.25962  -0.31033
  25        3PX         0.00466   0.00007  -0.00353  -0.09780   0.09876
  26        3PY         0.00115  -0.00018  -0.00079  -0.01654   0.02617
  27        3PZ         0.00014   0.00004  -0.00011  -0.00307   0.00347
  28        4S         -0.00007   0.00333  -0.01091   0.10451  -0.16885
  29        4PX        -0.00070  -0.00111   0.00366  -0.01800   0.03196
  30        4PY         0.00015  -0.00050   0.00106  -0.00592   0.00745
  31        4PZ         0.00002  -0.00004   0.00010  -0.00085   0.00074
  32        5D 0        0.00139   0.00001  -0.00107  -0.00782   0.00857
  33        5D+1       -0.00014  -0.00003   0.00012   0.00085  -0.00100
  34        5D-1       -0.00004  -0.00000   0.00002   0.00010  -0.00023
  35        5D+2       -0.00206  -0.00013   0.00177   0.01242  -0.01183
  36        5D-2       -0.00117   0.00017   0.00071   0.00410  -0.00715
  37 3   N  1S          0.00672   0.55761   0.00014  -0.06002  -0.08566
  38        2S          0.00581   0.46488   0.00013  -0.09297  -0.13345
  39        2PX         0.00083   0.00087   0.00013   0.04525   0.02599
  40        2PY        -0.00017  -0.00009   0.00005  -0.00745  -0.01203
  41        2PZ        -0.00003   0.00091  -0.00001   0.01257   0.02271
  42        3S         -0.00037   0.01688  -0.00003   0.25983   0.37515
  43        3PX        -0.00287  -0.00047  -0.00036   0.07163   0.04705
  44        3PY         0.00054  -0.00052  -0.00013  -0.00904  -0.01755
  45        3PZ         0.00025   0.00103   0.00005   0.01874   0.03470
  46        4S          0.00236  -0.00878   0.00296   0.11814   0.24924
  47        4PX         0.00156  -0.00278   0.00153   0.00320   0.01762
  48        4PY         0.00041   0.00087  -0.00039  -0.00480  -0.00405
  49        4PZ         0.00031  -0.00015  -0.00000   0.00779   0.01678
  50        5D 0        0.00059  -0.00086   0.00004  -0.00623  -0.00676
  51        5D+1       -0.00035  -0.00046  -0.00001   0.00182   0.00049
  52        5D-1        0.00009  -0.00018   0.00001  -0.00109  -0.00175
  53        5D+2       -0.00143  -0.00000  -0.00020   0.00834   0.00576
  54        5D-2        0.00062  -0.00003  -0.00021  -0.00140  -0.00368
  55 4   H  1S         -0.00021  -0.00009  -0.00005   0.03159   0.06245
  56        2S         -0.00067  -0.00199   0.00005   0.02844   0.05886
  57        3S          0.00063   0.00114   0.00031  -0.00999  -0.00574
  58        4PX        -0.00010  -0.00091   0.00011   0.00579   0.00789
  59        4PY        -0.00050  -0.00182   0.00000   0.00636   0.01177
  60        4PZ         0.00016   0.00093   0.00000  -0.00280  -0.00549
  61 5   H  1S         -0.00007   0.00013  -0.00001   0.02540   0.04967
  62        2S         -0.00128  -0.00181  -0.00015   0.02624   0.04508
  63        3S          0.00050   0.00091   0.00033  -0.00803  -0.00233
  64        4PX        -0.00038  -0.00042  -0.00001   0.00426   0.00514
  65        4PY         0.00051   0.00154   0.00004  -0.00655  -0.01145
  66        4PZ         0.00015   0.00064   0.00002  -0.00214  -0.00326
                           6         7         8         9        10
                           O         O         O         O         O
     Eigenvalues --    -0.68035  -0.58486  -0.49099  -0.45335  -0.41705
   1 1   N  1S         -0.04946   0.00497  -0.00999   0.03750   0.00498
   2        2S         -0.07882   0.00829  -0.01601   0.06040   0.00781
   3        2PX        -0.12009  -0.01243  -0.01376  -0.09832  -0.05609
   4        2PY        -0.00569   0.12223   0.01850   0.08480  -0.16839
   5        2PZ        -0.02095  -0.01377   0.20171   0.01092   0.02113
   6        3S          0.23769  -0.02529   0.04824  -0.18592  -0.02696
   7        3PX        -0.16965  -0.02240  -0.02133  -0.14012  -0.08023
   8        3PY        -0.00606   0.18754   0.02876   0.12754  -0.25258
   9        3PZ        -0.03311  -0.02129   0.30914   0.01659   0.03182
  10        4S          0.22146  -0.01196   0.04467  -0.23017  -0.03802
  11        4PX        -0.09204   0.03355   0.01409  -0.08609  -0.03962
  12        4PY        -0.00427   0.12510   0.02048   0.09539  -0.21417
  13        4PZ        -0.00995  -0.01299   0.22953   0.01516   0.03007
  14        5D 0       -0.00281  -0.00158  -0.00039  -0.00313   0.00365
  15        5D+1        0.00390   0.00121  -0.00007   0.00091   0.00353
  16        5D-1       -0.00121  -0.00042   0.00978   0.00080   0.00057
  17        5D+2        0.00438  -0.01380  -0.00160  -0.00370   0.01312
  18        5D-2       -0.00242  -0.01347  -0.00096   0.00889  -0.02247
  19 2   N  1S          0.03866   0.00388   0.01207  -0.07026  -0.03348
  20        2S          0.06137   0.00580   0.01926  -0.11198  -0.05345
  21        2PX         0.00895  -0.01161  -0.02425   0.14912   0.14773
  22        2PY         0.00780   0.05179   0.00862   0.12240  -0.13183
  23        2PZ        -0.00493  -0.00586   0.12271   0.01589   0.02583
  24        3S         -0.17896  -0.01520  -0.05597   0.31735   0.14937
  25        3PX         0.01358  -0.02043  -0.03331   0.20022   0.20703
  26        3PY         0.01176   0.07857   0.01394   0.17810  -0.19906
  27        3PZ        -0.00801  -0.00962   0.18872   0.02327   0.03850
  28        4S         -0.13626  -0.05926  -0.09051   0.49688   0.27234
  29        4PX         0.00530   0.00951  -0.01114   0.10357   0.12598
  30        4PY         0.00192   0.03822   0.01034   0.11599  -0.14275
  31        4PZ        -0.00511  -0.00261   0.10792   0.01427   0.02608
  32        5D 0        0.00214  -0.00151  -0.00277   0.00960   0.00763
  33        5D+1        0.00211   0.00206  -0.03045  -0.00322  -0.00530
  34        5D-1        0.00039  -0.00006  -0.00581  -0.00128  -0.00019
  35        5D+2       -0.00166   0.00757   0.00404  -0.01029  -0.02216
  36        5D-2       -0.00241  -0.01326  -0.00192  -0.02375   0.02240
  37 3   N  1S          0.04149  -0.00460   0.01923  -0.00559  -0.00251
  38        2S          0.06523  -0.00747   0.03081  -0.00905  -0.00388
  39        2PX         0.17537   0.04222   0.02485   0.04938   0.03784
  40        2PY        -0.03330   0.19716   0.01230  -0.05658   0.08510
  41        2PZ        -0.04544  -0.02056   0.13590   0.00666  -0.00574
  42        3S         -0.17842   0.02309  -0.09497   0.03159   0.01049
  43        3PX         0.25760   0.06763   0.03377   0.07746   0.05212
  44        3PY        -0.04851   0.29234   0.01828  -0.08181   0.12108
  45        3PZ        -0.06856  -0.03056   0.21001   0.01096  -0.00660
  46        4S         -0.22310   0.04700  -0.06509   0.02014   0.03895
  47        4PX         0.10870   0.04610   0.04459   0.05252   0.05634
  48        4PY        -0.01921   0.16915   0.00542  -0.05152   0.09276
  49        4PZ        -0.04223  -0.01586   0.16516   0.00706  -0.00403
  50        5D 0       -0.00644  -0.00281   0.00942  -0.00100  -0.00089
  51        5D+1        0.00955   0.00171   0.02341   0.00441   0.00376
  52        5D-1       -0.00038   0.01650  -0.00289  -0.00457   0.00741
  53        5D+2        0.01907   0.00745   0.00044   0.00629  -0.00304
  54        5D-2       -0.00758   0.00694   0.00152   0.00594  -0.01748
  55 4   H  1S         -0.09370  -0.13202   0.00387   0.02703  -0.08392
  56        2S         -0.10215  -0.17015  -0.01120   0.04352  -0.13173
  57        3S         -0.01995  -0.03662   0.00188   0.00927  -0.04876
  58        4PX         0.00382  -0.01125   0.00229   0.00537  -0.00273
  59        4PY        -0.01502  -0.00691   0.00094   0.00100  -0.00556
  60        4PZ         0.00318   0.00797   0.01111  -0.00245   0.00516
  61 5   H  1S         -0.11056   0.10735   0.00976  -0.05589   0.06429
  62        2S         -0.13242   0.14320   0.00456  -0.09223   0.10045
  63        3S         -0.02540   0.03432   0.00650  -0.02943   0.04909
  64        4PX        -0.00026   0.01188   0.00256  -0.00058   0.00446
  65        4PY         0.01916  -0.00988  -0.00160   0.00513  -0.00303
  66        4PZ         0.00487  -0.00830   0.00788   0.00334  -0.00347
                          11        12        13        14        15
                           O         O         V         V         V
     Eigenvalues --    -0.31742  -0.15026   0.00413   0.02691   0.07189
   1 1   N  1S         -0.00498  -0.02291  -0.00173  -0.00315   0.00289
   2        2S         -0.00824  -0.03703  -0.00331  -0.00523   0.00436
   3        2PX        -0.01559  -0.02228  -0.00615  -0.01991  -0.01178
   4        2PY        -0.00512  -0.18551   0.03949   0.04101   0.04776
   5        2PZ        -0.07504  -0.00573  -0.18013   0.14019   0.02770
   6        3S          0.02894   0.09622   0.01965   0.01316  -0.00303
   7        3PX        -0.02453  -0.02499  -0.03201  -0.05415  -0.01716
   8        3PY        -0.00684  -0.27656   0.05895   0.06193   0.07889
   9        3PZ        -0.11193  -0.00813  -0.27210   0.21287   0.04132
  10        4S         -0.00935   0.30236  -0.10061  -0.00057  -0.10502
  11        4PX         0.04883  -0.12886   0.23556   0.13423  -0.02172
  12        4PY        -0.01164  -0.37269   0.09756   0.09501   0.14074
  13        4PZ        -0.11615  -0.01174  -0.42333   0.35364   0.07801
  14        5D 0       -0.00283   0.00968   0.00323   0.00566  -0.00421
  15        5D+1       -0.04348  -0.00017   0.02244  -0.01120  -0.00003
  16        5D-1       -0.00348   0.00188   0.00143  -0.00429   0.00347
  17        5D+2        0.00133  -0.01525  -0.00855  -0.01330   0.01067
  18        5D-2       -0.00248   0.03331  -0.00529  -0.00625   0.00697
  19 2   N  1S         -0.00085   0.00805   0.00381   0.00689  -0.00295
  20        2S         -0.00137   0.01398   0.00607   0.01132  -0.00489
  21        2PX         0.02122  -0.00452   0.01338   0.03592  -0.00766
  22        2PY        -0.00567   0.23682  -0.03558  -0.03054  -0.05371
  23        2PZ        -0.16966   0.00410   0.17622  -0.13317  -0.02400
  24        3S          0.00325  -0.06186  -0.02307  -0.04670   0.02117
  25        3PX         0.03081  -0.00479   0.01752   0.04906  -0.01057
  26        3PY        -0.00801   0.34106  -0.05048  -0.04297  -0.07933
  27        3PZ        -0.25275   0.00559   0.24749  -0.18844  -0.03345
  28        4S         -0.02068   0.07922  -0.16560  -0.13592   0.01683
  29        4PX         0.03600  -0.07615   0.07773   0.10569  -0.00601
  30        4PY        -0.00154   0.44554  -0.06203  -0.06074  -0.12416
  31        4PZ        -0.22038   0.00630   0.42958  -0.32863  -0.06478
  32        5D 0        0.00200   0.00139  -0.00040  -0.00150   0.00071
  33        5D+1        0.02350  -0.00011   0.00695  -0.00633  -0.00208
  34        5D-1        0.00459   0.00015   0.00221  -0.00244   0.00035
  35        5D+2       -0.00211  -0.00318   0.00227   0.00332  -0.00019
  36        5D-2       -0.00015  -0.00426  -0.00208  -0.00241  -0.00404
  37 3   N  1S          0.02417   0.02539   0.03742   0.03310   0.00840
  38        2S          0.03898   0.04100   0.05945   0.05215   0.01336
  39        2PX         0.03571  -0.05179   0.05341   0.02512   0.01503
  40        2PY         0.01223   0.00929  -0.00231   0.02435  -0.17149
  41        2PZ         0.22076  -0.01149   0.04302  -0.11018  -0.01957
  42        3S         -0.12231  -0.12565  -0.15938  -0.13519  -0.03316
  43        3PX         0.04921  -0.09170   0.06433   0.01185   0.03068
  44        3PY         0.01813   0.01087  -0.00593   0.02437  -0.19980
  45        3PZ         0.32534  -0.02017   0.05032  -0.15378  -0.03355
  46        4S         -0.09577  -0.38125  -0.55204  -0.63702  -0.18554
  47        4PX         0.08595  -0.08931   0.30708   0.22831   0.01557
  48        4PY         0.01090  -0.03627  -0.03596   0.10596  -0.69757
  49        4PZ         0.38293  -0.04014   0.10665  -0.31762  -0.05171
  50        5D 0        0.01105  -0.00317  -0.00235  -0.00575  -0.00291
  51        5D+1        0.00437  -0.00239  -0.02245   0.01614   0.00438
  52        5D-1       -0.00038   0.00400   0.00211  -0.00347   0.00031
  53        5D+2        0.00019  -0.00533   0.00078   0.00023  -0.00262
  54        5D-2       -0.00133  -0.02975   0.00606   0.00874  -0.01119
  55 4   H  1S          0.02960  -0.03800   0.06788   0.03668  -0.02508
  56        2S          0.01794  -0.08669   0.08582  -0.01471   0.03431
  57        3S          0.01912  -0.01483   0.65052   1.04671  -1.21158
  58        4PX         0.00453   0.00078  -0.01208  -0.01063   0.00949
  59        4PY         0.00447  -0.00111  -0.00297  -0.01755   0.01109
  60        4PZ         0.01884   0.00117   0.01158  -0.00197  -0.01330
  61 5   H  1S          0.03516   0.07530   0.03923   0.00022   0.04259
  62        2S          0.03545   0.19466   0.10734  -0.03566   0.06349
  63        3S          0.02809   0.28258   0.41999   0.35675   1.49717
  64        4PX         0.00267  -0.00522  -0.00485  -0.00669  -0.00893
  65        4PY        -0.00310  -0.00366   0.00143   0.01113   0.02141
  66        4PZ         0.01533  -0.00255   0.01043  -0.00792   0.00810
                          16        17        18        19        20
                           V         V         V         V         V
     Eigenvalues --     0.20375   0.33282   0.35326   0.43683   0.49061
   1 1   N  1S         -0.07059   0.00254   0.01689  -0.00069   0.04024
   2        2S         -0.11517   0.00759   0.02727   0.00404   0.07651
   3        2PX        -0.10564   0.05404   0.01987   0.13142  -0.09241
   4        2PY         0.08467  -0.07926  -0.03901   0.05490   0.04488
   5        2PZ        -0.01653  -0.00255  -0.04031  -0.00830  -0.00894
   6        3S          0.31221  -0.11961  -0.06637  -0.16629  -0.52724
   7        3PX        -0.17460   0.09039  -0.02750   0.22597  -0.10764
   8        3PY         0.14128  -0.14156  -0.07785   0.09167   0.11938
   9        3PZ        -0.01582  -0.01241  -0.06662  -0.04419  -0.01203
  10        4S          2.25285   0.21070  -0.42362   1.08773  -2.05749
  11        4PX        -0.67904   0.53604   0.93175   4.01847  -1.84224
  12        4PY         0.40336  -0.33168  -0.00034   0.40629  -0.43669
  13        4PZ        -0.12515   0.09896  -0.18857   0.20015  -0.00585
  14        5D 0        0.02531   0.01067   0.00656   0.02117   0.01259
  15        5D+1       -0.00609  -0.00504  -0.01056   0.00160  -0.00940
  16        5D-1        0.00093  -0.01332   0.00691   0.01021   0.00130
  17        5D+2       -0.04222  -0.02441   0.01505  -0.02798  -0.02424
  18        5D-2       -0.00908  -0.02537  -0.01023   0.00973   0.01465
  19 2   N  1S          0.03328   0.02361  -0.00324   0.04696  -0.00662
  20        2S          0.05572   0.04195  -0.00538   0.08005  -0.00178
  21        2PX         0.13833   0.05015  -0.03023   0.05183   0.05778
  22        2PY        -0.02177   0.00759   0.00315  -0.01287  -0.01545
  23        2PZ         0.01416   0.00778   0.00579  -0.00801   0.01050
  24        3S         -0.21018  -0.20645   0.01108  -0.27100  -0.23249
  25        3PX         0.19829   0.10125  -0.02953   0.08841   0.31429
  26        3PY        -0.01718  -0.03967  -0.00320  -0.04083   0.03281
  27        3PZ         0.01840   0.02336  -0.01505  -0.03460   0.03621
  28        4S         -0.30271  -0.37277  -0.51735  -3.80294   2.87234
  29        4PX         0.45275   0.18473   0.10618   2.18210  -2.21293
  30        4PY        -0.17474   0.31477   0.12937   0.62099  -0.50236
  31        4PZ         0.06580  -0.03480   0.14266   0.10261  -0.11494
  32        5D 0        0.00073  -0.00427   0.00026   0.00153   0.01641
  33        5D+1        0.00096   0.00134   0.00667   0.00380   0.00023
  34        5D-1        0.00027   0.00007   0.00412   0.00141  -0.00195
  35        5D+2        0.00820  -0.00574  -0.00471   0.00363  -0.01696
  36        5D-2       -0.00850   0.01168   0.00535  -0.00985  -0.03421
  37 3   N  1S          0.04122   0.00288  -0.04441  -0.00991   0.01112
  38        2S          0.06764   0.00768  -0.07512  -0.01052   0.02303
  39        2PX        -0.21062  -0.01940  -0.02221  -0.08784  -0.12143
  40        2PY         0.00679   0.11333   0.01254  -0.06332  -0.04551
  41        2PZ         0.01325  -0.00323   0.07074  -0.02342   0.03184
  42        3S         -0.20364  -0.09059   0.21132  -0.15881  -0.15598
  43        3PX        -0.28445  -0.10850  -0.05030  -0.36387  -0.44480
  44        3PY         0.01548   0.24336   0.02002  -0.10267  -0.10695
  45        3PZ         0.01789  -0.00366   0.16209  -0.06081   0.09907
  46        4S         -1.08401   0.38012   1.67683   3.08081  -0.62865
  47        4PX        -1.37456   0.62406  -0.13948   2.19295   0.39145
  48        4PY         0.12928   0.85536  -0.19214  -1.18056   0.37509
  49        4PZ         0.04747  -0.12556   0.57212   0.31299  -0.20757
  50        5D 0       -0.01131   0.00652   0.02287   0.00775   0.01171
  51        5D+1       -0.00886  -0.00190  -0.00398  -0.00872   0.00469
  52        5D-1        0.00223  -0.01323  -0.00230   0.00445   0.01136
  53        5D+2        0.03389  -0.01020   0.01179  -0.02017  -0.01452
  54        5D-2        0.00292   0.02053   0.00452   0.02551  -0.00229
  55 4   H  1S          0.00032   0.09461  -0.09528  -0.02522  -0.02670
  56        2S         -0.03689   1.32751  -1.49578  -0.91160  -0.01328
  57        3S         -0.30413  -0.83560   0.52440   0.40842   0.22866
  58        4PX        -0.02771   0.00469  -0.03901  -0.02983   0.03878
  59        4PY         0.01638   0.02178   0.00972  -0.02540   0.02093
  60        4PZ        -0.00504   0.01614   0.03300  -0.00483  -0.02211
  61 5   H  1S         -0.01041  -0.09189  -0.11209   0.00987   0.01604
  62        2S         -0.16609  -1.09968  -1.43966   0.47314   0.08360
  63        3S         -0.16044   0.82164   0.78611   0.00366  -0.18142
  64        4PX        -0.02577   0.01384  -0.02223   0.02202  -0.00584
  65        4PY        -0.00802   0.02527  -0.00344  -0.00610  -0.00259
  66        4PZ         0.00080  -0.01532   0.02666   0.02421   0.00803
                          21        22        23        24        25
                           V         V         V         V         V
     Eigenvalues --     0.51889   0.57940   0.61015   0.66252   0.70003
   1 1   N  1S         -0.00350  -0.01338  -0.00131   0.01893  -0.00384
   2        2S         -0.00733  -0.02520  -0.00341   0.03627  -0.00560
   3        2PX        -0.03842  -0.02538  -0.02638   0.00728   0.00544
   4        2PY        -0.01749  -0.11692   0.00137  -0.02928  -0.15023
   5        2PZ        -0.10380   0.02243   0.07525  -0.02728   0.08726
   6        3S          0.05989   0.16072   0.03671  -0.21363  -0.02428
   7        3PX        -0.07309  -0.05612  -0.09242  -0.16142  -0.02494
   8        3PY        -0.05271  -0.48634   0.02634  -0.08815  -0.53131
   9        3PZ        -0.41273   0.08590   0.29116  -0.09629   0.28895
  10        4S         -0.58109  -0.26597  -0.48329   0.64457   0.11166
  11        4PX        -0.17174   0.33719   0.92146  -0.02898   1.24294
  12        4PY        -0.00995   0.68993   0.02081  -0.21489   1.54251
  13        4PZ         0.34911  -0.14314  -0.58880   0.21045  -0.64300
  14        5D 0        0.00565   0.01237   0.01156  -0.00601   0.01919
  15        5D+1        0.00986   0.01045   0.06296   0.00774  -0.00980
  16        5D-1       -0.01199   0.00440   0.01325  -0.01831   0.01765
  17        5D+2       -0.00052   0.01937  -0.00881   0.00954  -0.00675
  18        5D-2       -0.00081  -0.01787  -0.00291   0.02127   0.01089
  19 2   N  1S         -0.01015  -0.00598  -0.00542   0.03866   0.00189
  20        2S         -0.01728  -0.01109  -0.00984   0.07427   0.00355
  21        2PX         0.00829   0.03468  -0.00669  -0.07311   0.00551
  22        2PY        -0.00166  -0.16354   0.03724   0.06445   0.13472
  23        2PZ        -0.09569   0.02691   0.14957   0.03497  -0.08115
  24        3S          0.05167   0.04657   0.04099  -0.50295  -0.03210
  25        3PX         0.06033   0.13806   0.01160  -0.26374   0.05706
  26        3PY         0.00044  -0.57180   0.13382   0.18942   0.47097
  27        3PZ        -0.35642   0.09685   0.52682   0.12056  -0.27889
  28        4S          0.41693  -0.22622  -0.50117   0.40974  -1.12266
  29        4PX        -0.44691  -0.18758   0.07515   0.26419   0.42648
  30        4PY        -0.08112   0.68640  -0.12739  -0.21507  -1.01263
  31        4PZ         0.39834  -0.10017  -0.61120  -0.24378   0.63967
  32        5D 0        0.00266  -0.00052  -0.00035  -0.00560   0.00895
  33        5D+1        0.02946  -0.00796  -0.03460  -0.00033  -0.00074
  34        5D-1        0.00918  -0.00029  -0.00248  -0.00377   0.00223
  35        5D+2       -0.00322  -0.01422   0.00077  -0.00557  -0.00385
  36        5D-2        0.00020   0.04193  -0.00717  -0.00129  -0.00716
  37 3   N  1S         -0.00492   0.00846  -0.01011  -0.01093   0.00644
  38        2S         -0.00880   0.01561  -0.01720  -0.02098   0.01313
  39        2PX        -0.01974  -0.01740  -0.01796   0.03753   0.01410
  40        2PY         0.00778  -0.07313   0.03571  -0.20140   0.00654
  41        2PZ        -0.17381  -0.01467  -0.14381  -0.00816   0.00304
  42        3S          0.01579  -0.10658   0.01998   0.17544  -0.14141
  43        3PX        -0.04924  -0.02096  -0.06381   0.10061   0.00553
  44        3PY         0.00003  -0.23697   0.10085  -0.62018   0.00850
  45        3PZ        -0.60342  -0.03975  -0.49810  -0.05669   0.04134
  46        4S          0.32931   0.37716   1.11581  -0.49186   0.93272
  47        4PX        -0.06675   0.08580   0.37948  -0.32884   0.41148
  48        4PY         0.04164   0.07525  -0.44424   1.97077  -1.00571
  49        4PZ         0.85064   0.13867   1.11932  -0.06420   0.19536
  50        5D 0       -0.02032  -0.01312  -0.00683   0.00510   0.00582
  51        5D+1       -0.03547  -0.00350  -0.02987  -0.00234  -0.00475
  52        5D-1        0.00008   0.01094  -0.00335   0.00852   0.00747
  53        5D+2        0.00666   0.00253   0.01103  -0.01533  -0.01220
  54        5D-2       -0.00341  -0.02392   0.01332  -0.05826   0.03243
  55 4   H  1S          0.01500  -0.01928   0.01208  -0.02665   0.03464
  56        2S         -0.09085  -0.24702  -0.38384   0.50311  -0.43272
  57        3S         -0.17901   0.49341  -0.14477   0.67808   0.11005
  58        4PX        -0.03844  -0.03953  -0.08566   0.09402  -0.14298
  59        4PY        -0.02752   0.01116  -0.01737   0.10959  -0.02406
  60        4PZ         0.01176  -0.02205   0.03374  -0.02587  -0.01848
  61 5   H  1S          0.00300   0.02835  -0.01260   0.02443  -0.00884
  62        2S         -0.17054   0.21375  -0.22469  -0.37806   0.35472
  63        3S         -0.08594  -0.56031   0.22447  -0.78559  -0.03111
  64        4PX        -0.02008   0.00216  -0.03144  -0.06127   0.08600
  65        4PY         0.02319   0.02232  -0.00967   0.09396  -0.00517
  66        4PZ         0.00376   0.02970   0.03343   0.00366   0.05935
                          26        27        28        29        30
                           V         V         V         V         V
     Eigenvalues --     0.70531   0.74001   0.77288   0.85768   0.96575
   1 1   N  1S          0.04576  -0.02496   0.04192  -0.02429  -0.00883
   2        2S          0.08830  -0.05055   0.08358  -0.04693  -0.02161
   3        2PX        -0.10167   0.04746   0.18109   0.11070  -0.23213
   4        2PY         0.02906   0.07655   0.01863   0.03197   0.02226
   5        2PZ         0.08078   0.14570   0.01040  -0.02632  -0.02609
   6        3S         -0.55836   0.38416  -0.68150   0.27683   0.28565
   7        3PX        -0.46054   0.11409   0.50516  -0.19116  -0.48828
   8        3PY         0.11507   0.29001   0.08495   0.11902   0.12939
   9        3PZ         0.26473   0.50847   0.03737  -0.13493  -0.08363
  10        4S          0.44020  -0.58048   1.64847   0.31768  -0.83330
  11        4PX         1.53599   0.07152  -0.86011   4.86734   6.29986
  12        4PY        -0.21834  -1.03182  -0.02165   0.02354  -0.42140
  13        4PZ        -0.65056  -1.29708  -0.25226   0.63359   0.43021
  14        5D 0       -0.00122  -0.01190   0.01485   0.00201   0.00770
  15        5D+1       -0.00245  -0.01615   0.00203   0.02331   0.00437
  16        5D-1        0.00772  -0.00795   0.00840   0.00553   0.01588
  17        5D+2        0.00176  -0.00008   0.00467  -0.01413  -0.00022
  18        5D-2       -0.03669  -0.00260  -0.02695  -0.10985   0.00854
  19 2   N  1S          0.05292  -0.02516   0.01567   0.01951  -0.05105
  20        2S          0.10473  -0.05079   0.03045   0.03256  -0.10009
  21        2PX        -0.12912   0.08945   0.10159   0.18044  -0.11141
  22        2PY        -0.08326  -0.00279   0.01143   0.05233  -0.00084
  23        2PZ        -0.07392  -0.09929   0.00643   0.01700  -0.00057
  24        3S         -0.79989   0.40281  -0.14378  -0.14788   0.71008
  25        3PX        -0.30440   0.22116   0.35217   0.55702  -0.10183
  26        3PY        -0.26316  -0.05416   0.02503   0.08641   0.00046
  27        3PZ        -0.25118  -0.35296   0.01098   0.07132   0.01072
  28        4S         -0.12403  -0.26095   0.06099  -3.73891  -5.11704
  29        4PX         0.29591  -0.22335  -0.18932   0.81391   1.87311
  30        4PY         0.56302   0.45400   0.03636   0.64009   0.92243
  31        4PZ         0.58256   0.95362   0.07427  -0.23280  -0.03425
  32        5D 0        0.01809  -0.02205   0.01168  -0.02050   0.01835
  33        5D+1       -0.00337   0.00523   0.00226  -0.01057  -0.00727
  34        5D-1        0.00282   0.00293   0.00456  -0.00253  -0.00060
  35        5D+2       -0.03680   0.02094  -0.01464   0.00777  -0.06480
  36        5D-2       -0.00700   0.01841   0.00597   0.06359   0.01287
  37 3   N  1S          0.00021  -0.01660   0.04750  -0.04501   0.07458
  38        2S          0.00034  -0.03121   0.09568  -0.08692   0.14722
  39        2PX         0.04569  -0.02157   0.20405   0.08645  -0.06770
  40        2PY         0.05728  -0.08644  -0.04058  -0.02622  -0.01659
  41        2PZ        -0.02279  -0.02949  -0.03987   0.03526  -0.00606
  42        3S          0.00587   0.18108  -0.85389   0.59282  -1.31031
  43        3PX         0.11128  -0.03709   0.41768   0.35695  -0.10968
  44        3PY         0.18950  -0.26992  -0.08730   0.00318  -0.10838
  45        3PZ        -0.06165  -0.13421  -0.04595   0.11525   0.15558
  46        4S          0.96361   0.08834   1.30153   2.25822   7.08392
  47        4PX         0.07530   0.30680  -1.58964   1.31146   2.47231
  48        4PY        -0.61665   1.30798   0.14360  -0.89704  -0.47486
  49        4PZ         0.37069   0.55753   0.54989  -0.27410   0.27229
  50        5D 0       -0.00795  -0.00056   0.04145  -0.02794  -0.02126
  51        5D+1       -0.01247  -0.00371  -0.03392   0.00007  -0.03224
  52        5D-1        0.00579  -0.00408   0.00840   0.03770   0.01520
  53        5D+2       -0.00693   0.01820  -0.08921   0.03117   0.04384
  54        5D-2        0.02227  -0.02910   0.04859   0.08293   0.02859
  55 4   H  1S          0.02281  -0.00905   0.02638   0.05565   0.06489
  56        2S         -0.14460   0.27967  -0.65206  -0.12739  -0.73604
  57        3S         -0.32468   0.38934  -0.59282   0.16185  -0.06127
  58        4PX        -0.07373   0.03356  -0.03163  -0.13329  -0.24970
  59        4PY        -0.03781   0.09329  -0.14635   0.03648  -0.08517
  60        4PZ         0.00003   0.01133   0.10694  -0.14065   0.10131
  61 5   H  1S          0.02076   0.00011   0.01701   0.00216   0.02409
  62        2S          0.10862  -0.54020  -0.45835   0.50474  -0.51391
  63        3S          0.10293  -0.12027  -0.58712   0.20768  -0.09088
  64        4PX        -0.03801  -0.09696  -0.03057   0.03726  -0.00212
  65        4PY        -0.02434   0.02807   0.13820  -0.03025   0.15445
  66        4PZ         0.01456  -0.00326   0.12032   0.03536   0.18517
                          31        32        33        34        35
                           V         V         V         V         V
     Eigenvalues --     1.14112   1.27049   1.37218   1.51552   1.61952
   1 1   N  1S          0.07920  -0.02261  -0.01263  -0.00100   0.00431
   2        2S          0.15558  -0.04427  -0.02494  -0.00247   0.00757
   3        2PX        -0.09630   0.00936   0.06620  -0.01780   0.01389
   4        2PY        -0.04213   0.02637   0.02112  -0.01512  -0.05651
   5        2PZ        -0.00312  -0.00387   0.00688   0.00425  -0.00974
   6        3S         -1.37041   0.41422   0.28485   0.03761  -0.00938
   7        3PX         0.01263   0.04312   0.28760  -0.03813   0.13958
   8        3PY        -0.01183   0.07787   0.09444  -0.01954  -0.02577
   9        3PZ        -0.00144   0.08207  -0.04834   0.00809   0.00396
  10        4S          6.69383  -2.03200  -2.58102   0.09950  -1.15648
  11        4PX         0.89583  -2.05412  -5.95957   0.33407  -2.37837
  12        4PY         0.72572  -0.66016  -0.99674  -0.20452  -0.07109
  13        4PZ         0.01743  -0.59481   0.07336   0.00795   0.08244
  14        5D 0       -0.11980  -0.06179  -0.02216  -0.09230  -0.00452
  15        5D+1        0.02084  -0.20438   0.22620   0.01061  -0.25080
  16        5D-1        0.01546   0.08326  -0.01165  -0.09122  -0.16577
  17        5D+2        0.15190  -0.09178  -0.10367  -0.02382  -0.00058
  18        5D-2        0.03371  -0.03927  -0.02999  -0.03724  -0.29363
  19 2   N  1S         -0.06849   0.01680   0.02176  -0.00653   0.00113
  20        2S         -0.13288   0.03360   0.04507  -0.01286   0.00177
  21        2PX        -0.11832   0.00416  -0.01161  -0.01475  -0.04125
  22        2PY        -0.03679   0.00345  -0.01642   0.02271   0.03200
  23        2PZ        -0.00274   0.03752  -0.03533  -0.00237   0.04196
  24        3S          1.12550  -0.32328  -0.45372   0.11048  -0.07336
  25        3PX         0.03150  -0.10452  -0.20412  -0.02054  -0.16596
  26        3PY        -0.01395  -0.02971  -0.06485   0.03092   0.03005
  27        3PZ         0.00267   0.04310  -0.05770  -0.00270   0.06064
  28        4S         -4.59243   2.86303   6.19398  -0.40510   2.38520
  29        4PX         2.22063  -1.20071  -2.39999   0.18476  -0.86906
  30        4PY         0.35882  -0.15886  -0.54942   0.05815  -0.33493
  31        4PZ         0.06845   0.15470  -0.18883   0.01857  -0.09820
  32        5D 0        0.07947  -0.03545  -0.05276  -0.05372   0.00190
  33        5D+1       -0.01025   0.11090  -0.11672   0.01504   0.19212
  34        5D-1       -0.00021   0.05986  -0.04923  -0.03482  -0.02138
  35        5D+2       -0.10769   0.00663   0.04168  -0.04466  -0.08002
  36        5D-2       -0.06527   0.02517  -0.01084   0.03812   0.13584
  37 3   N  1S         -0.02523   0.01618  -0.00355   0.00679  -0.01174
  38        2S         -0.05094   0.03355  -0.00804   0.01343  -0.02282
  39        2PX         0.01591  -0.03579  -0.00795  -0.00892  -0.03565
  40        2PY        -0.01785  -0.01281  -0.01850  -0.00528   0.03675
  41        2PZ         0.01414  -0.02696   0.02914   0.00064  -0.00948
  42        3S          0.60239  -0.33125   0.16892  -0.09335   0.16305
  43        3PX        -0.00603   0.00679  -0.04865  -0.03205  -0.17797
  44        3PY        -0.00334  -0.06597  -0.06550  -0.14035   0.23212
  45        3PZ        -0.05611  -0.08051   0.00622   0.01313   0.03156
  46        4S         -2.67192   0.11825  -3.90863   0.26858  -1.67329
  47        4PX        -1.04777  -0.76761  -1.18164   0.18968   0.01912
  48        4PY         0.08202   0.71438   1.36328   1.00866  -0.01733
  49        4PZ        -0.12390   0.72712  -0.52912  -0.04241  -0.35248
  50        5D 0       -0.03618  -0.14331   0.01154  -0.03471   0.12175
  51        5D+1        0.01526   0.25578  -0.19510  -0.02436   0.12739
  52        5D-1        0.05063   0.06505   0.17497   0.04968  -0.10985
  53        5D+2       -0.02275  -0.08714   0.07182   0.00570   0.21098
  54        5D-2        0.08692   0.09334   0.10776  -0.05995   0.26276
  55 4   H  1S         -0.00862  -0.01586  -0.02329  -0.07227   0.04493
  56        2S          0.44144  -0.29869   0.79117   0.57478   0.18416
  57        3S         -0.05281  -0.02085  -0.02736  -0.01159   0.14825
  58        4PX        -0.10615   0.01140  -0.37034   0.34776  -0.08150
  59        4PY         0.06687  -0.27560   0.24974  -0.51723   0.17249
  60        4PZ        -0.29285  -0.52079  -0.21820  -0.36979  -0.08893
  61 5   H  1S         -0.06010  -0.02285  -0.04633   0.08243  -0.44395
  62        2S          0.40936  -0.70505  -0.04745  -0.60776   0.99731
  63        3S         -0.05061  -0.08721  -0.11429   0.04484  -0.40388
  64        4PX         0.13908   0.39747   0.24970  -0.40735  -0.43755
  65        4PY        -0.02943   0.23351  -0.13073  -0.50735   0.21694
  66        4PZ        -0.02903  -0.11411   0.49765   0.43310   0.20566
                          36        37        38        39        40
                           V         V         V         V         V
     Eigenvalues --     1.65365   1.69187   1.73499   1.75750   1.88491
   1 1   N  1S         -0.00253  -0.00495   0.00170   0.00407  -0.00954
   2        2S         -0.00594  -0.00883   0.00349   0.00700  -0.02050
   3        2PX        -0.00571  -0.06771  -0.02190   0.06155   0.01369
   4        2PY        -0.02765  -0.03416  -0.04907   0.00168  -0.03708
   5        2PZ        -0.00203   0.03401  -0.02788   0.00612   0.02862
   6        3S          0.14019  -0.00309  -0.08218   0.00720   0.21507
   7        3PX         0.08890  -0.15252  -0.06605   0.05134  -0.06225
   8        3PY        -0.02337  -0.04373  -0.04755  -0.03050  -0.00652
   9        3PZ        -0.00666   0.03469  -0.03179   0.00310  -0.00462
  10        4S         -1.86082   1.45087   1.11566  -1.04497  -1.11511
  11        4PX         0.44342   0.62830  -0.12253   1.86280   1.16057
  12        4PY         0.00458   0.38449   0.24274  -0.03812  -0.28612
  13        4PZ        -0.20724  -0.14209   0.08046   0.20205   0.27515
  14        5D 0       -0.05185  -0.18880  -0.39498  -0.39631   0.05906
  15        5D+1        0.28444   0.11666   0.00564  -0.11747  -0.23079
  16        5D-1        0.12240  -0.43877   0.45409  -0.21831   0.07436
  17        5D+2       -0.09075  -0.16591  -0.24248  -0.23096  -0.03799
  18        5D-2       -0.20888   0.01717  -0.06643   0.14047   0.27733
  19 2   N  1S          0.00029  -0.00701  -0.00491   0.00478   0.00134
  20        2S          0.00008  -0.01525  -0.01049   0.01021   0.00307
  21        2PX        -0.02185   0.00304  -0.00003   0.02492   0.01381
  22        2PY         0.03879  -0.02140  -0.01828  -0.01571  -0.04658
  23        2PZ        -0.04400  -0.00705  -0.01860   0.03589   0.04359
  24        3S         -0.03966   0.14059   0.09718  -0.06996  -0.03193
  25        3PX        -0.07414  -0.00335  -0.00865   0.10158   0.02824
  26        3PY         0.04260  -0.03360  -0.02437  -0.01103  -0.05803
  27        3PZ        -0.06804  -0.01046  -0.02160   0.04838   0.05755
  28        4S          0.39347  -1.13981  -0.41870  -1.05634  -0.43580
  29        4PX        -0.19436   0.49753   0.22591   0.30517   0.07299
  30        4PY        -0.08530   0.08532   0.00117   0.16390   0.22743
  31        4PZ         0.07125   0.08463  -0.00419  -0.06904  -0.13980
  32        5D 0       -0.08801  -0.09229  -0.29950  -0.36120   0.12971
  33        5D+1       -0.22267   0.06814  -0.16563   0.21435   0.17373
  34        5D-1        0.02048  -0.30638   0.33645  -0.15992   0.34034
  35        5D+2       -0.09503  -0.05506  -0.12787  -0.10898   0.19939
  36        5D-2        0.12378  -0.10185  -0.17802  -0.21300  -0.25573
  37 3   N  1S          0.03895   0.00579  -0.01772   0.00911   0.01124
  38        2S          0.08168   0.01027  -0.03785   0.02329   0.01948
  39        2PX         0.02025  -0.02201  -0.02834   0.06745   0.10679
  40        2PY         0.01309   0.05253   0.01978  -0.04382   0.09266
  41        2PZ         0.05314  -0.02659  -0.02226   0.01765  -0.06541
  42        3S         -0.76607   0.00967   0.35902  -0.33858  -0.15322
  43        3PX         0.00492   0.13886  -0.03792   0.04691   0.10861
  44        3PY         0.06128   0.20102   0.02480   0.00087   0.04287
  45        3PZ        -0.03684  -0.08280   0.02407   0.00879   0.00365
  46        4S          2.21647  -0.07728  -0.95171   2.08892   1.44360
  47        4PX         0.77826  -0.87143  -0.49640   1.43148   0.85769
  48        4PY        -0.50196  -0.40340  -0.04409  -0.44450   0.01615
  49        4PZ         0.72322   0.12254  -0.31784   0.08188  -0.03168
  50        5D 0       -0.22896  -0.11220   0.02743  -0.03879  -0.03673
  51        5D+1       -0.21591  -0.09507   0.10541   0.01481  -0.14434
  52        5D-1       -0.06187  -0.16003   0.01712   0.07740  -0.23465
  53        5D+2       -0.00755  -0.12544  -0.00747   0.01891  -0.16189
  54        5D-2        0.15190   0.14016   0.10902  -0.15476   0.00403
  55 4   H  1S          0.31023   0.33627   0.07828  -0.33650   0.66752
  56        2S         -1.15675  -0.76973   0.00540   0.35748  -0.87888
  57        3S          0.27670   0.20465   0.07597  -0.21784   0.49132
  58        4PX        -0.01490   0.54334   0.23816  -0.44969  -0.17549
  59        4PY         0.08516   0.14544  -0.03200   0.19013   0.24641
  60        4PZ        -0.31892   0.06389   0.30558  -0.04361  -0.25886
  61 5   H  1S         -0.02964  -0.00980  -0.17782   0.14670   0.14831
  62        2S         -0.18895   0.01741   0.42367  -0.12439  -0.26128
  63        3S         -0.01313  -0.08937  -0.20440   0.25295   0.02901
  64        4PX        -0.35852   0.33157   0.01905  -0.26781  -0.25582
  65        4PY        -0.00698   0.16256   0.09219  -0.10930  -0.16977
  66        4PZ        -0.55470   0.19794   0.23961  -0.27585   0.16052
                          41        42        43        44        45
                           V         V         V         V         V
     Eigenvalues --     1.95296   2.09732   2.12454   2.26991   2.35483
   1 1   N  1S         -0.00404   0.00336   0.00178   0.01321   0.00818
   2        2S         -0.00905   0.00798   0.00306   0.03217   0.02107
   3        2PX         0.02183  -0.00576  -0.00694   0.07037  -0.00534
   4        2PY        -0.04274   0.03587  -0.05051   0.11429   0.05886
   5        2PZ        -0.05541   0.03716   0.00513  -0.08156   0.13969
   6        3S          0.13398  -0.06615   0.01812  -0.29862  -0.20405
   7        3PX        -0.09347  -0.01429   0.00431   0.01891   0.01474
   8        3PY        -0.03068  -0.02598  -0.03351  -0.05555  -0.03691
   9        3PZ        -0.01519   0.02362   0.00233  -0.00464  -0.01135
  10        4S         -0.53391   0.49669  -0.23817   0.06825   0.61213
  11        4PX         2.65785   0.93083   0.71192   0.30271   0.87382
  12        4PY        -0.20429   0.15477   0.01438   0.24340   0.37535
  13        4PZ        -0.17722   0.01635   0.13243  -0.02730   0.47772
  14        5D 0        0.04475   0.00239  -0.41949  -0.29151  -0.08750
  15        5D+1        0.18778   0.08611  -0.01529  -0.07562   0.02484
  16        5D-1        0.04189  -0.45393  -0.01118   0.15621   0.29443
  17        5D+2       -0.10004   0.01557  -0.32115   0.21792   0.11367
  18        5D-2        0.33746   0.06158  -0.07649   0.14134   0.11778
  19 2   N  1S          0.00287   0.00142  -0.00249   0.01245   0.00831
  20        2S          0.00531   0.00292  -0.00611   0.03134   0.01955
  21        2PX         0.04411   0.01800   0.00409  -0.01662   0.01213
  22        2PY        -0.04833   0.00981   0.00632   0.01486  -0.00721
  23        2PZ        -0.03912  -0.00607   0.00454  -0.00493   0.00801
  24        3S         -0.02967  -0.00559   0.04753  -0.25665  -0.15012
  25        3PX         0.09099   0.05619  -0.03096   0.24439   0.16511
  26        3PY        -0.06300   0.01180  -0.01900   0.07188   0.03293
  27        3PZ        -0.04843   0.00580   0.00575   0.00307   0.02644
  28        4S         -1.77381  -0.91693  -0.49810  -0.11571  -0.82726
  29        4PX         0.54741   0.34316   0.19339  -0.07884   0.26030
  30        4PY         0.43521   0.06864   0.07941  -0.17178  -0.00765
  31        4PZ         0.17042   0.01899  -0.03704   0.06323  -0.24872
  32        5D 0        0.09093  -0.03698   0.67358  -0.03563  -0.05096
  33        5D+1       -0.25292  -0.09395   0.02149  -0.20203   0.50690
  34        5D-1       -0.24189   0.70595   0.02563  -0.15486  -0.04928
  35        5D+2        0.23034  -0.02944   0.38208   0.10574  -0.00008
  36        5D-2       -0.29571   0.04078   0.07013   0.37537   0.17193
  37 3   N  1S         -0.00886   0.00816   0.00636   0.01466   0.01230
  38        2S         -0.01032   0.02536   0.01655   0.03242   0.03282
  39        2PX        -0.00273  -0.03987  -0.00264   0.04036  -0.01767
  40        2PY         0.11006  -0.00641  -0.07262   0.07387   0.10451
  41        2PZ         0.10278   0.08080   0.00086  -0.05050   0.04312
  42        3S         -0.17931  -0.28232  -0.17939  -0.26038  -0.26104
  43        3PX         0.12080   0.17284   0.08519  -0.10354   0.13231
  44        3PY         0.02110   0.29163   0.04053   0.44730  -0.37188
  45        3PZ         0.00930  -0.12075  -0.04963  -0.05043  -0.08981
  46        4S          2.61068   0.36345   0.50682   0.19454  -0.04037
  47        4PX         1.02891   0.13681   0.46746   0.36100   0.21035
[...]
     2   7     0.14  -0.30  -0.00     0.01   0.00  -0.18     0.04  -0.01  -0.01
     3   7    -0.03  -0.19   0.02     0.02   0.04  -0.09    -0.11   0.00  -0.15
     4   1     0.16  -0.35  -0.02    -0.19  -0.23  -0.84     0.31   0.10   0.58
     5   1    -0.54  -0.28  -0.18    -0.14  -0.16   0.16     0.16  -0.16   0.69
                     4                      5                      6
                     A                      A                      A
 Frequencies --  1084.4799              1293.8099              1652.0197
 Red. masses --     3.0459                 1.3592                 1.0821
 Frc consts  --     2.1106                 1.3405                 1.7401
 IR Inten    --    17.7423                24.4906                13.2654
  Atom  AN      X      Y      Z        X      Y      Z        X      Y      Z
     1   7     0.13  -0.09  -0.02     0.01   0.03  -0.01     0.00  -0.01  -0.01
     2   7     0.20   0.01   0.01     0.10   0.02   0.01     0.01   0.01  -0.00
     3   7    -0.28   0.09   0.05    -0.10  -0.08   0.01     0.07  -0.01  -0.02
     4   1     0.01  -0.17  -0.15    -0.71   0.20  -0.16    -0.56   0.46   0.18
     5   1    -0.80  -0.05  -0.39     0.61   0.17   0.07    -0.55  -0.30   0.21
                     7                      8                      9
                     A                      A                      A
 Frequencies --  2089.5911              2822.6431              3542.6998
 Red. masses --    10.4815                 1.0633                 1.0757
 Frc consts  --    26.9647                 4.9916                 7.9546
 IR Inten    --   129.5930               203.9868                45.7190
  Atom  AN      X      Y      Z        X      Y      Z        X      Y      Z
     1   7     0.65   0.15   0.01     0.00   0.01  -0.00     0.00  -0.00  -0.00
     2   7    -0.50  -0.13  -0.02    -0.01  -0.01   0.00    -0.00   0.00  -0.00
     3   7    -0.12  -0.05   0.02    -0.02   0.06   0.02     0.03   0.06  -0.03
     4   1    -0.44   0.11  -0.17     0.02   0.08   0.01    -0.47  -0.78   0.40
     5   1     0.02   0.18  -0.02     0.35  -0.88  -0.30     0.01  -0.02  -0.03

 -------------------
 - Thermochemistry -
 -------------------
 Temperature   298.150 Kelvin.  Pressure   1.00000 Atm.
 Atom     1 has atomic number  7 and mass  14.00307
 Atom     2 has atomic number  7 and mass  14.00307
 Atom     3 has atomic number  7 and mass  14.00307
 Atom     4 has atomic number  1 and mass   1.00783
 Atom     5 has atomic number  1 and mass   1.00783
 Molecular mass:    44.02487 amu.
 Principal axes and moments of inertia in atomic units:
                           1         2         3
     Eigenvalues --     7.92080 165.49661 171.43732
           X            0.99977  -0.00637  -0.02031
           Y            0.00644   0.99997   0.00320
           Z            0.02029  -0.00333   0.99979
 This molecule is an asymmetric top.
 Rotational symmetry number  1.
 Rotational temperatures (Kelvin)     10.93499     0.52336     0.50522
 Rotational constants (GHZ):         227.84847    10.90500    10.52712
    1 imaginary frequencies ignored.
 Zero-point vibrational energy      81812.1 (Joules/Mol)
                                   19.55356 (Kcal/Mol)
 Warning -- explicit consideration of   1 degrees of freedom as
           vibrations may cause significant error
 Vibrational temperatures:    576.68  1139.31  1560.32  1861.50  2376.88
          (Kelvin)           3006.45  4061.15  5097.15
 
 Zero-point correction=                           0.031161 (Hartree/Particle)
 Thermal correction to Energy=                    0.034423
 Thermal correction to Enthalpy=                  0.035368
 Thermal correction to Gibbs Free Energy=         0.006873
 Sum of electronic and zero-point Energies=           -165.238774
 Sum of electronic and thermal Energies=              -165.235511
 Sum of electronic and thermal Enthalpies=            -165.234567
 Sum of electronic and thermal Free Energies=         -165.263061
 
                     E (Thermal)             CV                S
                      KCal/Mol        Cal/Mol-Kelvin    Cal/Mol-Kelvin
 Total                   21.601              8.591             59.972
 Electronic               0.000              0.000              1.377
 Translational            0.889              2.981             37.273
 Rotational               0.889              2.981             20.047
 Vibrational             19.824              2.630              1.275
 Vibration     1          0.767              1.468              0.960
                       Q            Log10(Q)             Ln(Q)
 Total Bot       0.689644D-03         -3.161375         -7.279335
 Total V=0       0.148411D+12         11.171465         25.723249
 Vib (Bot)       0.559647D-14        -14.252086        -32.816640
 Vib (Bot)    1  0.444425D+00         -0.352202         -0.810975
 Vib (V=0)       0.120436D+01          0.080755          0.185945
 Vib (V=0)    1  0.116896D+01          0.067801          0.156118
 Electronic      0.200000D+01          0.301030          0.693147
 Translational   0.114816D+08          7.060002         16.256256
 Rotational      0.536634D+04          3.729678          8.587901
 
                                                  reverse IRC, from TS reverse1 f
 req
                                                             IR Spectrum
 
     3                         2                          2              1            1       1                                      
     5                         8                          0              6            2       0         7             4              
     4                         2                          9              5            9       8         9             0              
     3                         3                          0              2            4       4         2             1              
 
     X                         X                          X              X            X       X         X             X              
     X                         X                          X                           X       X         X             X              
     X                         X                          X                                             X                            
     X                         X                          X                                             X                            
                               X                          X                                             X                            
                               X                          X                                             X                            
                               X                          X                                             X                            
                               X                          X                                             X                            
                               X                          X                                             X                            
                               X                          X                                             X                            
                               X                          X                                             X                            
                               X                          X                                             X                            
                               X                          X                                             X                            
                               X                                                                        X                            
                               X                                                                        X                            
                               X                                                                        X                            
                               X                                                                        X                            
                               X                                                                        X                            
                               X                                                                        X                            
                               X                                                                                                     
 
 ***** Axes restored to original set *****
 -------------------------------------------------------------------
 Center     Atomic                   Forces (Hartrees/Bohr)
 Number     Number              X              Y              Z
 -------------------------------------------------------------------
      1        7          -0.054506703   -0.037528183   -0.003219380
      2        7           0.026946890    0.019926470    0.023001239
      3        7           0.029600673    0.034381953   -0.026433223
      4        1           0.003923624   -0.003177713   -0.002861149
      5        1          -0.005964484   -0.013602525    0.009512513
 -------------------------------------------------------------------
 Cartesian Forces:  Max     0.054506703 RMS     0.024689769
 Z-matrix is all fixed cartesians, so copy forces.
 Force constants in Cartesian coordinates: 
                1             2             3             4             5 
      1  0.684279D-02
      2  0.107318D-01  0.146939D-01
      3 -0.791241D-01  0.892771D-01  0.140851D+01
      4  0.238493D-01  0.961439D-02  0.667645D-02 -0.763833D-02
      5  0.119558D-01 -0.136661D-02 -0.115486D+00 -0.546541D-02  0.186497D-02
      6  0.602720D-02 -0.118251D+00 -0.982234D+00 -0.437201D-01  0.100414D+00
      7 -0.315440D-01 -0.818029D-02  0.331998D-01 -0.170953D-01 -0.131398D-01
      8 -0.179661D-01 -0.112045D-01  0.424895D-01 -0.985995D-02 -0.670006D-02
      9  0.470164D-01 -0.104262D-01 -0.354232D+00  0.447975D-01  0.198562D-01
     10  0.130939D-01  0.621431D-02  0.269536D-01  0.287016D-03 -0.143420D-02
     11  0.136184D-01 -0.137195D-01 -0.561766D-02 -0.458021D-02  0.898296D-02
     12 -0.486556D-02  0.763699D-02 -0.742548D-01 -0.472682D-02 -0.245892D-02
     13 -0.122420D-01 -0.183802D-01  0.122943D-01  0.597385D-03  0.808369D-02
     14 -0.183400D-01  0.115967D-01 -0.106628D-01  0.102912D-01 -0.278125D-02
     15  0.309461D-01  0.317628D-01  0.220677D-02 -0.302702D-02 -0.232481D-02
                6             7             8             9            10 
      6  0.103857D+01
      7  0.165928D-01  0.425195D+00
      8 -0.149105D-01  0.173875D+00  0.221748D+00
      9 -0.531795D-01  0.128870D+00 -0.388368D-01  0.654929D+00
     10  0.506488D-02 -0.277650D+00 -0.529910D-01 -0.208475D+00  0.277158D+00
     11  0.501960D-02 -0.320807D-01 -0.216093D-01  0.112949D-01  0.448271D-01
     12  0.948146D-02 -0.181694D+00 -0.134867D-01 -0.176196D+00  0.187201D+00
     13  0.160353D-01 -0.989053D-01 -0.930583D-01 -0.122089D-01 -0.128886D-01
     14  0.277279D-01 -0.120475D+00 -0.182235D+00  0.181120D-01  0.338383D-02
     15 -0.126365D-01  0.303071D-02  0.247445D-01 -0.713207D-01 -0.107443D-01
               11            12            13            14            15 
     11  0.310105D-01
     12  0.878740D-02  0.233106D+00
     13 -0.217847D-01  0.408488D-02  0.123439D+00
     14 -0.466457D-02 -0.478770D-03  0.125140D+00  0.178084D+00
     15 -0.194842D-01  0.786346D-02 -0.202055D-01 -0.346982D-01  0.738870D-01
 Leave Link  716 at Fri Apr 25 17:10:01 2014, MaxMem=   65536000 cpu:       0.2
 (Enter /apps/gaussian/g09/l103.exe)

 GradGradGradGradGradGradGradGradGradGradGradGradGradGradGradGradGradGrad
 Berny optimization.
 Search for a local minimum.
 Step number   1 out of a maximum of    2
 All quantities printed in internal units (Hartrees-Bohrs-Radians)
 Second derivative matrix not updated -- analytic derivatives used.
 The second derivative matrix:
                          X1        Y1        Z1        X2        Y2
           X1           0.00684
           Y1           0.01073   0.01469
           Z1          -0.07912   0.08928   1.40851
           X2           0.02385   0.00961   0.00668  -0.00764
           Y2           0.01196  -0.00137  -0.11549  -0.00547   0.00186
           Z2           0.00603  -0.11825  -0.98223  -0.04372   0.10041
           X3          -0.03154  -0.00818   0.03320  -0.01710  -0.01314
           Y3          -0.01797  -0.01120   0.04249  -0.00986  -0.00670
           Z3           0.04702  -0.01043  -0.35423   0.04480   0.01986
           X4           0.01309   0.00621   0.02695   0.00029  -0.00143
           Y4           0.01362  -0.01372  -0.00562  -0.00458   0.00898
           Z4          -0.00487   0.00764  -0.07425  -0.00473  -0.00246
           X5          -0.01224  -0.01838   0.01229   0.00060   0.00808
           Y5          -0.01834   0.01160  -0.01066   0.01029  -0.00278
           Z5           0.03095   0.03176   0.00221  -0.00303  -0.00232
                          Z2        X3        Y3        Z3        X4
           Z2           1.03857
           X3           0.01659   0.42520
           Y3          -0.01491   0.17388   0.22175
           Z3          -0.05318   0.12887  -0.03884   0.65493
           X4           0.00506  -0.27765  -0.05299  -0.20848   0.27716
           Y4           0.00502  -0.03208  -0.02161   0.01129   0.04483
           Z4           0.00948  -0.18169  -0.01349  -0.17620   0.18720
           X5           0.01604  -0.09891  -0.09306  -0.01221  -0.01289
           Y5           0.02773  -0.12047  -0.18223   0.01811   0.00338
           Z5          -0.01264   0.00303   0.02474  -0.07132  -0.01074
                          Y4        Z4        X5        Y5        Z5
           Y4           0.03101
           Z4           0.00879   0.23311
           X5          -0.02178   0.00408   0.12344
           Y5          -0.00466  -0.00048   0.12514   0.17808
           Z5          -0.01948   0.00786  -0.02021  -0.03470   0.07389
     Eigenvalues ---   -0.03424   0.00170   0.06947   0.10758   0.12852
     Eigenvalues ---    0.37359   0.63343   0.93891   2.28419
 Eigenvalue     1 is  -3.42D-02 should be greater than     0.000000 Eigenvector:
                          X1        Z5        X2        Y1        Y2
   1                    0.58919  -0.40799  -0.40476   0.37308  -0.26541
                          X4        Y5        X3        Z2        Y4
   1                   -0.21901  -0.15173  -0.11708   0.09903  -0.08382
 Quadratic step=2.668D+00 exceeds max=3.000D-01 adjusted using Lamda=-2.069D-01.
 Angle between NR and scaled steps=  42.01 degrees.
 Angle between quadratic step and forces=  27.37 degrees.
 Linear search not attempted -- first point.
 TrRot= -0.003063  0.001488 -0.004292  0.105618  0.005863 -0.108515
 Variable       Old X    -DE/DX   Delta X   Delta X   Delta X     New X
                                 (Linear)    (Quad)   (Total)
    X1       -0.27375  -0.05451   0.00000  -0.20008  -0.20311  -0.47686
    Y1       -0.18069  -0.03753   0.00000  -0.13531  -0.13235  -0.31304
    Z1        0.16451  -0.00322   0.00000  -0.00385  -0.00518   0.15932
    X2       -0.41084   0.02695   0.00000   0.11406   0.12490  -0.28594
    Y2       -0.01087   0.01993   0.00000   0.07548   0.07928   0.06841
    Z2        2.34844   0.02300   0.00000   0.00310   0.00045   2.34889
    X3        0.61619   0.02960   0.00000   0.06001   0.04506   0.66125
    Y3        0.07704   0.03438   0.00000   0.06068   0.05891   0.13594
    Z3       -2.08869  -0.02643   0.00000  -0.01607  -0.02435  -2.11304
    X4       -0.83055   0.00392   0.00000   0.05535   0.03261  -0.79794
    Y4       -0.06351  -0.00318   0.00000  -0.00475  -0.00309  -0.06660
    Z4       -3.33728  -0.00286   0.00000  -0.00708  -0.00675  -3.34403
    X5        1.77979  -0.00596   0.00000   0.01345   0.00053   1.78032
    Y5        1.65257  -0.01360   0.00000   0.00251  -0.00275   1.64982
    Z5       -2.55686   0.00951   0.00000   0.05158   0.03583  -2.52103
         Item               Value     Threshold  Converged?
 Maximum Force            0.054507     0.000450     NO 
 RMS     Force            0.024690     0.000300     NO 
 Maximum Displacement     0.203110     0.001800     NO 
 RMS     Displacement     0.077109     0.001200     NO 
 Predicted change in Energy=-2.476431D-02
 GradGradGradGradGradGradGradGradGradGradGradGradGradGradGradGradGradGrad

 Leave Link  103 at Fri Apr 25 17:10:01 2014, MaxMem=   65536000 cpu:       0.1
 (Enter /apps/gaussian/g09/l9999.exe)

 Test job not archived.
 1\1\GINC-ROMEO169\Freq\UM06\6-311G(d,p)\H2N3(2)\ROOT\25-Apr-2014\0\\#P
  M06 6-311G** FREQ # GFINPUT IOP(6/7=3) POP=FULL\\reverse IRC, from TS
  reverse1 freq\\0,2\N,-0.14486,-0.095617,0.087053\N,-0.217408,-0.00575
 1,1.242741\N,0.326074,0.040766,-1.105285\H,-0.439507,-0.03361,-1.76601
 5\H,0.941825,0.874504,-1.353033\\Version=AM64L-G09RevA.02\State=2-A\HF
 =-165.2699342\S2=0.753814\S2-1=0.\S2A=0.750011\RMSD=5.403e-09\RMSF=2.4
 69e-02\ZeroPoint=0.0311606\Thermal=0.0344235\Dipole=0.0607094,0.432349
 2,-1.3688176\DipoleDeriv=-0.1703974,-0.2353679,-0.3467374,-0.0300549,-
 0.0714897,-0.2332374,-0.5054977,-0.1714456,0.9878495,-0.1681887,0.0380
 843,0.0317208,0.0100883,-0.1807552,0.0314928,0.4715575,0.3559731,-0.64
 64416,0.1121512,0.4639328,0.1847766,0.4233792,0.0465391,-0.2968033,-0.
 0848656,-0.2812757,-0.5351334,0.1640085,-0.0608222,-0.017429,-0.058676
 2,0.2627402,0.1646029,0.0377238,0.0344287,0.2444088,0.0624264,-0.20582
 7,0.1476691,-0.3447364,-0.0570344,0.333945,0.081082,0.0623195,-0.05068
 33\Polar=17.115489,4.574556,15.0569942,-7.0678972,-4.0664107,38.687161
 \PG=C01 [X(H2N3)]\NImag=1\\0.00684279,0.01073184,0.01469387,-0.0791241
 4,0.08927707,1.40851477,0.02384926,0.00961439,0.00667645,-0.00763833,0
 .01195575,-0.00136661,-0.11548610,-0.00546541,0.00186497,0.00602720,-0
 .11825064,-0.98223432,-0.04372010,0.10041367,1.03856886,-0.03154396,-0
 .00818029,0.03319979,-0.01709533,-0.01313983,0.01659275,0.42519510,-0.
 01796608,-0.01120448,0.04248950,-0.00985995,-0.00670006,-0.01491048,0.
 17387537,0.22174845,0.04701636,-0.01042617,-0.35423245,0.04479749,0.01
 985617,-0.05317949,0.12887028,-0.03883681,0.65492913,0.01309395,0.0062
 1431,0.02695362,0.00028702,-0.00143420,0.00506488,-0.27765046,-0.05299
 104,-0.20847523,0.27715813,0.01361845,-0.01371952,-0.00561766,-0.00458
 021,0.00898296,0.00501960,-0.03208066,-0.02160932,0.01129486,0.0448271
 0,0.03101046,-0.00486556,0.00763699,-0.07425477,-0.00472682,-0.0024589
 2,0.00948146,-0.18169353,-0.01348670,-0.17619644,0.18720103,0.00878740
 ,0.23310630,-0.01224204,-0.01838025,0.01229428,0.00059739,0.00808369,0
 .01603526,-0.09890535,-0.09305830,-0.01220890,-0.01288863,-0.02178468,
 0.00408488,0.12343863,-0.01833996,0.01159674,-0.01066281,0.01029119,-0
 .00278125,0.02772785,-0.12047459,-0.18223458,0.01811195,0.00338383,-0.
 00466457,-0.00047877,0.12513954,0.17808365,0.03094613,0.03176275,0.002
 20677,-0.00302702,-0.00232481,-0.01263651,0.00303071,0.02474450,-0.071
 32075,-0.01074431,-0.01948421,0.00786346,-0.02020552,-0.03469823,0.073
 88703\\0.05450670,0.03752818,0.00321938,-0.02694689,-0.01992647,-0.023
 00124,-0.02960067,-0.03438195,0.02643322,-0.00392362,0.00317771,0.0028
 6115,0.00596448,0.01360253,-0.00951251\\\@


 VIRTUE IS LEARNED AT YOUR MOTHER'S KNEE,
 VICES ARE PICKED UP AT SOME OTHER JOINT.
 Job cpu time:  0 days  0 hours  1 minutes 54.6 seconds.
 File lengths (MBytes):  RWF=      9 Int=      0 D2E=      0 Chk=      1 Scr=      1
 Normal termination of Gaussian 09 at Fri Apr 25 17:10:01 2014.
************
total 320
drwxrwxr-x 2 henon henon   4096 25 avril 17:10 .
drwxrwxr-x 3 henon henon   4096 25 avril 17:09 ..
-rw-r--r-- 1 henon henon    392 25 avril 17:09 6Rfreq.inp
-rw-rw-r-- 1 henon henon 311498 25 avril 17:10 6Rfreq.out
Run on 12 cores
romeo169
************
