 Entering Gaussian System, Link 0=g09
 Initial command:
 /apps/gaussian/g09/l1.exe /scratch_l/henon/8Rfreq_9027/Gau-9043.inp -scrdir=/scratch_l/henon/8Rfreq_9027/
 Entering Link 1 = /apps/gaussian/g09/l1.exe PID=      9044.
  
 Copyright (c) 1988,1990,1992,1993,1995,1998,2003,2009, Gaussian, Inc.
                  All Rights Reserved.
  
 This is part of the Gaussian(R) 09 program.  It is based on
 the Gaussian(R) 03 system (copyright 2003, Gaussian, Inc.),
 the Gaussian(R) 98 system (copyright 1998, Gaussian, Inc.),
 the Gaussian(R) 94 system (copyright 1995, Gaussian, Inc.),
 the Gaussian 92(TM) system (copyright 1992, Gaussian, Inc.),
 the Gaussian 90(TM) system (copyright 1990, Gaussian, Inc.),
 the Gaussian 88(TM) system (copyright 1988, Gaussian, Inc.),
 the Gaussian 86(TM) system (copyright 1986, Carnegie Mellon
 University), and the Gaussian 82(TM) system (copyright 1983,
 Carnegie Mellon University). Gaussian is a federally registered
 trademark of Gaussian, Inc.
  
 This software contains proprietary and confidential information,
 including trade secrets, belonging to Gaussian, Inc.
  
 This software is provided under written license and may be
 used, copied, transmitted, or stored only in accord with that
 written license.
  
 The following legend is applicable only to US Government
 contracts under FAR:
  
                    RESTRICTED RIGHTS LEGEND
  
 Use, reproduction and disclosure by the US Government is
 subject to restrictions as set forth in subparagraphs (a)
 and (c) of the Commercial Computer Software - Restricted
 Rights clause in FAR 52.227-19.
  
 Gaussian, Inc.
 340 Quinnipiac St., Bldg. 40, Wallingford CT 06492
  
  
 ---------------------------------------------------------------
 Warning -- This program may not be used in any manner that
 competes with the business of Gaussian, Inc. or will provide
 assistance to any competitor of Gaussian, Inc.  The licensee
 of this program is prohibited from giving any competitor of
 Gaussian, Inc. access to this program.  By using this program,
 the user acknowledges that Gaussian, Inc. is engaged in the
 business of creating and licensing software in the field of
 computational chemistry and represents and warrants to the
 licensee that it is not a competitor of Gaussian, Inc. and that
 it will not use this program in any manner prohibited above.
 ---------------------------------------------------------------
  

 Cite this work as:
 Gaussian 09, Revision A.02,
 M. J. Frisch, G. W. Trucks, H. B. Schlegel, G. E. Scuseria, 
 M. A. Robb, J. R. Cheeseman, G. Scalmani, V. Barone, B. Mennucci, 
 G. A. Petersson, H. Nakatsuji, M. Caricato, X. Li, H. P. Hratchian, 
 A. F. Izmaylov, J. Bloino, G. Zheng, J. L. Sonnenberg, M. Hada, 
 M. Ehara, K. Toyota, R. Fukuda, J. Hasegawa, M. Ishida, T. Nakajima, 
 Y. Honda, O. Kitao, H. Nakai, T. Vreven, J. A. Montgomery, Jr., 
 J. E. Peralta, F. Ogliaro, M. Bearpark, J. J. Heyd, E. Brothers, 
 K. N. Kudin, V. N. Staroverov, R. Kobayashi, J. Normand, 
 K. Raghavachari, A. Rendell, J. C. Burant, S. S. Iyengar, J. Tomasi, 
 M. Cossi, N. Rega, J. M. Millam, M. Klene, J. E. Knox, J. B. Cross, 
 V. Bakken, C. Adamo, J. Jaramillo, R. Gomperts, R. E. Stratmann, 
 O. Yazyev, A. J. Austin, R. Cammi, C. Pomelli, J. W. Ochterski, 
 R. L. Martin, K. Morokuma, V. G. Zakrzewski, G. A. Voth, 
 P. Salvador, J. J. Dannenberg, S. Dapprich, A. D. Daniels, 
 O. Farkas, J. B. Foresman, J. V. Ortiz, J. Cioslowski, 
 and D. J. Fox, Gaussian, Inc., Wallingford CT, 2009.
 
 ******************************************
 Gaussian 09:  AM64L-G09RevA.02 11-Jun-2009
                25-Apr-2014 
 ******************************************
 %NPROC=12
 Will use up to   12 processors via shared memory.
 %MEM=500MB
 --------------------------------------------------
 #P M06 6-311G** FREQ # GFINPUT IOP(6/7=3) POP=FULL
 --------------------------------------------------
 1/10=4,30=1,38=1/1,3;
 2/12=2,17=6,18=5,40=1/2;
 3/5=4,6=6,7=101,11=2,16=1,24=10,25=1,30=1,71=2,74=-54/1,2,3;
 4//1;
 5/5=2,38=5,98=1/2;
 8/6=4,10=90,11=11/1;
 11/6=1,8=1,9=11,15=111,16=1/1,2,10;
 10/6=1/2;
 6/7=3,18=1,28=1/1;
 7/8=1,10=1,25=1/1,2,3,16;
 1/10=4,30=1/3;
 99//99;
 Leave Link    1 at Fri Apr 25 17:10:02 2014, MaxMem=   65536000 cpu:       0.4
 (Enter /apps/gaussian/g09/l101.exe)
 ----------------------------------
 reverse IRC, from TS reverse1 freq
 ----------------------------------
 Symbolic Z-matrix:
 Charge =  0 Multiplicity = 2
 7                    -0.18111  -0.11979   0.08682 
 7                    -0.19818   0.0072    1.24945 
 7                     0.33967   0.05451  -1.11348 
 1                    -0.40173  -0.05131  -1.79307 
 1                     0.95351   0.85735  -1.30179 
 
 NAtoms=      5 NQM=      5 NQMF=      0 NMic=      0 NMicF=      0 NTot=      5.
                    Isotopes and Nuclear Properties:
 (Nuclear quadrupole moments (NQMom) in fm**2, nuclear magnetic moments (NMagM)
  in nuclear magnetons)

  Atom         1           2           3           4           5
 IAtWgt=          14          14          14           1           1
 AtmWgt=  14.0030740  14.0030740  14.0030740   1.0078250   1.0078250
 NucSpn=           2           2           2           1           1
 AtZEff=   0.0000000   0.0000000   0.0000000   0.0000000   0.0000000
 NQMom=    2.0440000   2.0440000   2.0440000   0.0000000   0.0000000
 NMagM=    0.4037610   0.4037610   0.4037610   2.7928460   2.7928460
 Leave Link  101 at Fri Apr 25 17:10:02 2014, MaxMem=   65536000 cpu:       0.5
 (Enter /apps/gaussian/g09/l103.exe)

 GradGradGradGradGradGradGradGradGradGradGradGradGradGradGradGradGradGrad
 Berny optimization.
 Initialization pass.
 Trust Radius=3.00D-01 FncErr=1.00D-07 GrdErr=1.00D-07
 Number of steps in this run=   2 maximum allowed number of steps=   2.
 GradGradGradGradGradGradGradGradGradGradGradGradGradGradGradGradGradGrad

 Leave Link  103 at Fri Apr 25 17:10:02 2014, MaxMem=   65536000 cpu:       0.1
 (Enter /apps/gaussian/g09/l202.exe)
                          Input orientation:                          
 ---------------------------------------------------------------------
 Center     Atomic      Atomic             Coordinates (Angstroms)
 Number     Number       Type             X           Y           Z
 ---------------------------------------------------------------------
      1          7           0       -0.181110   -0.119792    0.086816
      2          7           0       -0.198181    0.007197    1.249448
      3          7           0        0.339666    0.054508   -1.113477
      4          1           0       -0.401733   -0.051310   -1.793065
      5          1           0        0.953506    0.857351   -1.301794
 ---------------------------------------------------------------------
                    Distance matrix (angstroms):
                    1          2          3          4          5
     1  N    0.000000
     2  N    1.169671   0.000000
     3  N    1.319959   2.423826   0.000000
     4  H    1.894021   3.049876   1.011291   0.000000
     5  H    2.042156   2.925403   1.028017   1.704020   0.000000
 Stoichiometry    H2N3(2)
 Framework group  C1[X(H2N3)]
 Deg. of freedom     9
 Full point group                 C1      NOp   1
 Largest Abelian subgroup         C1      NOp   1
 Largest concise Abelian subgroup C1      NOp   1
                         Standard orientation:                         
 ---------------------------------------------------------------------
 Center     Atomic      Atomic             Coordinates (Angstroms)
 Number     Number       Type             X           Y           Z
 ---------------------------------------------------------------------
      1          7           0        0.199737   -0.199054   -0.011987
      2          7           0        1.328556    0.105671    0.020286
      3          7           0       -1.092567    0.059748   -0.084533
      4          1           0       -1.590773   -0.731037    0.301678
      5          1           0       -1.459309    0.966473    0.231962
 ---------------------------------------------------------------------
 Rotational constants (GHZ):    204.5890106     10.8153961     10.3700658
 Leave Link  202 at Fri Apr 25 17:10:02 2014, MaxMem=   65536000 cpu:       0.0
 (Enter /apps/gaussian/g09/l301.exe)
 Standard basis: 6-311G(d,p) (5D, 7F)
 Ernie: Thresh=  0.10000D-02 Tol=  0.10000D-05 Strict=F.
 AO basis set in the form of general basis input (Overlap normalization):
      1 0
 S   6 1.00       0.000000000000
      0.6293480000D+04  0.1969788147D-02
      0.9490440000D+03  0.1496128592D-01
      0.2187760000D+03  0.7350053084D-01
      0.6369160000D+02  0.2489367658D+00
      0.1882820000D+02  0.6024594331D+00
      0.2720230000D+01  0.2562017589D+00
 SP   3 1.00       0.000000000000
      0.3063310000D+02  0.1119060795D+00  0.3831191864D-01
      0.7026140000D+01  0.9216666549D+00  0.2374031155D+00
      0.2112050000D+01 -0.2569191826D-02  0.8175923978D+00
 SP   1 1.00       0.000000000000
      0.6840090000D+00  0.1000000000D+01  0.1000000000D+01
 SP   1 1.00       0.000000000000
      0.2008780000D+00  0.1000000000D+01  0.1000000000D+01
 D   1 1.00       0.000000000000
      0.9130000000D+00  0.1000000000D+01
 ****
      2 0
 S   6 1.00       0.000000000000
      0.6293480000D+04  0.1969788147D-02
      0.9490440000D+03  0.1496128592D-01
      0.2187760000D+03  0.7350053084D-01
      0.6369160000D+02  0.2489367658D+00
      0.1882820000D+02  0.6024594331D+00
      0.2720230000D+01  0.2562017589D+00
 SP   3 1.00       0.000000000000
      0.3063310000D+02  0.1119060795D+00  0.3831191864D-01
      0.7026140000D+01  0.9216666549D+00  0.2374031155D+00
      0.2112050000D+01 -0.2569191826D-02  0.8175923978D+00
 SP   1 1.00       0.000000000000
      0.6840090000D+00  0.1000000000D+01  0.1000000000D+01
 SP   1 1.00       0.000000000000
      0.2008780000D+00  0.1000000000D+01  0.1000000000D+01
 D   1 1.00       0.000000000000
      0.9130000000D+00  0.1000000000D+01
 ****
      3 0
 S   6 1.00       0.000000000000
      0.6293480000D+04  0.1969788147D-02
      0.9490440000D+03  0.1496128592D-01
      0.2187760000D+03  0.7350053084D-01
      0.6369160000D+02  0.2489367658D+00
      0.1882820000D+02  0.6024594331D+00
      0.2720230000D+01  0.2562017589D+00
 SP   3 1.00       0.000000000000
      0.3063310000D+02  0.1119060795D+00  0.3831191864D-01
      0.7026140000D+01  0.9216666549D+00  0.2374031155D+00
      0.2112050000D+01 -0.2569191826D-02  0.8175923978D+00
 SP   1 1.00       0.000000000000
      0.6840090000D+00  0.1000000000D+01  0.1000000000D+01
 SP   1 1.00       0.000000000000
      0.2008780000D+00  0.1000000000D+01  0.1000000000D+01
 D   1 1.00       0.000000000000
      0.9130000000D+00  0.1000000000D+01
 ****
      4 0
 S   3 1.00       0.000000000000
      0.3386500000D+02  0.2549381454D-01
      0.5094790000D+01  0.1903731086D+00
      0.1158790000D+01  0.8521614860D+00
 S   1 1.00       0.000000000000
      0.3258400000D+00  0.1000000000D+01
 S   1 1.00       0.000000000000
      0.1027410000D+00  0.1000000000D+01
 P   1 1.00       0.000000000000
      0.7500000000D+00  0.1000000000D+01
 ****
      5 0
 S   3 1.00       0.000000000000
      0.3386500000D+02  0.2549381454D-01
      0.5094790000D+01  0.1903731086D+00
      0.1158790000D+01  0.8521614860D+00
 S   1 1.00       0.000000000000
      0.3258400000D+00  0.1000000000D+01
 S   1 1.00       0.000000000000
      0.1027410000D+00  0.1000000000D+01
 P   1 1.00       0.000000000000
      0.7500000000D+00  0.1000000000D+01
 ****

 There are    66 symmetry adapted basis functions of A   symmetry.
 Integral buffers will be    131072 words long.
 Raffenetti 2 integral format.
 Two-electron integral symmetry is turned on.
    66 basis functions,   112 primitive gaussians,    69 cartesian basis functions
    12 alpha electrons       11 beta electrons
       nuclear repulsion energy        66.3376388564 Hartrees.
 IExCor= 4235 DFT=T Ex+Corr=M06 ExCW=0 ScaHFX=  0.270000
 ScaDFX=  1.000000  1.000000  1.000000  1.000000 ScalE2=  1.000000  1.000000
 IRadAn=      0 IRanWt=     -1 IRanGd=            0 ICorTp=0
 NAtoms=    5 NActive=    5 NUniq=    5 SFac= 7.50D-01 NAtFMM=   80 NAOKFM=F Big=F
 Leave Link  301 at Fri Apr 25 17:10:02 2014, MaxMem=   65536000 cpu:       0.3
 (Enter /apps/gaussian/g09/l302.exe)
 NPDir=0 NMtPBC=     1 NCelOv=     1 NCel=       1 NClECP=     1 NCelD=      1
         NCelK=      1 NCelE2=     1 NClLst=     1 CellRange=     0.0.
 One-electron integrals computed using PRISM.
 NBasis=    66 RedAO= T  NBF=    66
 NBsUse=    66 1.00D-06 NBFU=    66
 Precomputing XC quadrature grid using
 IXCGrd= 2 IRadAn=           0 IRanWt=          -1 IRanGd=           0 AccXCQ= 1.00D-10.
 NRdTot=     311 NPtTot=       39306 NUsed=       41561 NTot=       41593
 NSgBfM=    69    69    69    69    69 NAtAll=     5     5.
 Leave Link  302 at Fri Apr 25 17:10:02 2014, MaxMem=   65536000 cpu:       2.2
 (Enter /apps/gaussian/g09/l303.exe)
 DipDrv:  MaxL=1.
 Leave Link  303 at Fri Apr 25 17:10:02 2014, MaxMem=   65536000 cpu:       0.2
 (Enter /apps/gaussian/g09/l401.exe)
 Harris functional with IExCor= 1009 diagonalized for initial guess.
 ExpMin= 1.03D-01 ExpMax= 6.29D+03 ExpMxC= 9.49D+02 IAcc=1 IRadAn=         1 AccDes= 0.00D+00
 HarFok:  IExCor= 1009 AccDes= 0.00D+00 IRadAn=         1 IDoV= 1
 ScaDFX=  1.000000  1.000000  1.000000  1.000000
 FoFCou: FMM=F IPFlag=           0 FMFlag=      100000 FMFlg1=           0
         NFxFlg=           0 DoJE=T BraDBF=F KetDBF=T FulRan=T
         Omega=  0.000000  0.000000  1.000000  0.000000  0.000000 ICntrl=     500 IOpCl=  0
         NMat0=    1 NMatS0=    1 NMatT0=    0 NMatD0=    1 NMtDS0=    0 NMtDT0=    0
         I1Cent=           4 NGrid=           0.
 Petite list used in FoFCou.
 Harris En= -165.237306801208    
 Initial guess orbital symmetries:
 Alpha Orbitals:
       Occupied  (A) (A) (A) (A) (A) (A) (A) (A) (A) (A) (A) (A)
       Virtual   (A) (A) (A) (A) (A) (A) (A) (A) (A) (A) (A) (A)
                 (A) (A) (A) (A) (A) (A) (A) (A) (A) (A) (A) (A)
                 (A) (A) (A) (A) (A) (A) (A) (A) (A) (A) (A) (A)
                 (A) (A) (A) (A) (A) (A) (A) (A) (A) (A) (A) (A)
                 (A) (A) (A) (A) (A) (A)
 Beta  Orbitals:
       Occupied  (A) (A) (A) (A) (A) (A) (A) (A) (A) (A) (A)
       Virtual   (A) (A) (A) (A) (A) (A) (A) (A) (A) (A) (A) (A)
                 (A) (A) (A) (A) (A) (A) (A) (A) (A) (A) (A) (A)
                 (A) (A) (A) (A) (A) (A) (A) (A) (A) (A) (A) (A)
                 (A) (A) (A) (A) (A) (A) (A) (A) (A) (A) (A) (A)
                 (A) (A) (A) (A) (A) (A) (A)
 The electronic state of the initial guess is 2-A.
 Initial guess <Sx>= 0.0000 <Sy>= 0.0000 <Sz>= 0.5000 <S**2>= 0.7500 S= 0.5000
 Leave Link  401 at Fri Apr 25 17:10:02 2014, MaxMem=   65536000 cpu:       1.5
 (Enter /apps/gaussian/g09/l502.exe)
 UHF open shell SCF:
 Requested convergence on RMS density matrix=1.00D-08 within 128 cycles.
 Requested convergence on MAX density matrix=1.00D-06.
 Requested convergence on             energy=1.00D-06.
 No special actions if energy rises.
 Using DIIS extrapolation, IDIIS=  1040.
 Integral symmetry usage will be decided dynamically.
        41503 words used for storage of precomputed grid.
 Keep R1 and R2 ints in memory in canonical form, NReq=6799076.
 IEnd=       75273 IEndB=       75273 NGot=    65536000 MDV=    59647530
 LenX=    59647530 LenY=    59642328
 Symmetry not used in FoFDir.
 MinBra= 0 MaxBra= 2 Meth= 1.
 IRaf=       0 NMat=   1 IRICut=       1 DoRegI=T DoRafI=F ISym2E= 0 JSym2E=0.
 Integral accuracy reduced to 1.0D-05 until final iterations.

 Cycle   1  Pass 0  IDiag  1:
 E= -165.231629196911    
 DIIS: error= 2.82D-02 at cycle   1 NSaved=   1.
 NSaved= 1 IEnMin= 1 EnMin= -165.231629196911     IErMin= 1 ErrMin= 2.82D-02
 ErrMax= 2.82D-02 EMaxC= 1.00D-01 BMatC= 2.13D-01 BMatP= 2.13D-01
 IDIUse=3 WtCom= 7.18D-01 WtEn= 2.82D-01
 Coeff-Com:  0.100D+01
 Coeff-En:   0.100D+01
 Coeff:      0.100D+01
 Gap=     0.163 Goal=   None    Shift=    0.000
 Gap=     0.283 Goal=   None    Shift=    0.000
 GapD=    0.163 DampG=1.000 DampE=0.500 DampFc=0.5000 IDamp=-1.
 Damping current iteration by 5.00D-01
 RMSDP=8.63D-03 MaxDP=2.52D-01              OVMax= 1.88D-01

 Cycle   2  Pass 0  IDiag  1:
 E= -165.245544107351     Delta-E=       -0.013914910441 Rises=F Damp=T
 DIIS: error= 1.09D-02 at cycle   2 NSaved=   2.
 NSaved= 2 IEnMin= 2 EnMin= -165.245544107351     IErMin= 2 ErrMin= 1.09D-02
 ErrMax= 1.09D-02 EMaxC= 1.00D-01 BMatC= 4.19D-02 BMatP= 2.13D-01
 IDIUse=3 WtCom= 8.91D-01 WtEn= 1.09D-01
 Coeff-Com:  0.221D+00 0.779D+00
 Coeff-En:   0.321D+00 0.679D+00
 Coeff:      0.232D+00 0.768D+00
 Gap=     0.180 Goal=   None    Shift=    0.000
 Gap=     0.282 Goal=   None    Shift=    0.000
 RMSDP=2.05D-03 MaxDP=5.81D-02 DE=-1.39D-02 OVMax= 1.19D-01

 Cycle   3  Pass 0  IDiag  1:
 E= -165.271691110934     Delta-E=       -0.026147003583 Rises=F Damp=F
 DIIS: error= 1.37D-02 at cycle   3 NSaved=   3.
 NSaved= 3 IEnMin= 3 EnMin= -165.271691110934     IErMin= 2 ErrMin= 1.09D-02
 ErrMax= 1.37D-02 EMaxC= 1.00D-01 BMatC= 3.96D-02 BMatP= 4.19D-02
 IDIUse=3 WtCom= 8.63D-01 WtEn= 1.37D-01
 Coeff-Com:  0.623D-01 0.476D+00 0.462D+00
 Coeff-En:   0.000D+00 0.000D+00 0.100D+01
 Coeff:      0.538D-01 0.411D+00 0.535D+00
 Gap=     0.165 Goal=   None    Shift=    0.000
 Gap=     0.284 Goal=   None    Shift=    0.000
 RMSDP=1.41D-03 MaxDP=1.78D-02 DE=-2.61D-02 OVMax= 4.96D-02

 Cycle   4  Pass 0  IDiag  1:
 E= -165.277353201781     Delta-E=       -0.005662090848 Rises=F Damp=F
 DIIS: error= 7.23D-03 at cycle   4 NSaved=   4.
 NSaved= 4 IEnMin= 4 EnMin= -165.277353201781     IErMin= 4 ErrMin= 7.23D-03
 ErrMax= 7.23D-03 EMaxC= 1.00D-01 BMatC= 1.15D-02 BMatP= 3.96D-02
 IDIUse=3 WtCom= 9.28D-01 WtEn= 7.23D-02
 Coeff-Com:  0.203D-01 0.359D-01 0.343D+00 0.601D+00
 Coeff-En:   0.000D+00 0.000D+00 0.274D+00 0.726D+00
 Coeff:      0.188D-01 0.333D-01 0.338D+00 0.610D+00
 Gap=     0.167 Goal=   None    Shift=    0.000
 Gap=     0.279 Goal=   None    Shift=    0.000
 RMSDP=7.60D-04 MaxDP=1.83D-02 DE=-5.66D-03 OVMax= 2.22D-02

 Cycle   5  Pass 0  IDiag  1:
 E= -165.279663525259     Delta-E=       -0.002310323478 Rises=F Damp=F
 DIIS: error= 1.19D-03 at cycle   5 NSaved=   5.
 NSaved= 5 IEnMin= 5 EnMin= -165.279663525259     IErMin= 5 ErrMin= 1.19D-03
 ErrMax= 1.19D-03 EMaxC= 1.00D-01 BMatC= 3.00D-04 BMatP= 1.15D-02
 IDIUse=3 WtCom= 9.88D-01 WtEn= 1.19D-02
 Coeff-Com:  0.661D-02-0.192D-01 0.130D+00 0.304D+00 0.578D+00
 Coeff-En:   0.000D+00 0.000D+00 0.000D+00 0.000D+00 0.100D+01
 Coeff:      0.653D-02-0.189D-01 0.129D+00 0.300D+00 0.583D+00
 Gap=     0.167 Goal=   None    Shift=    0.000
 Gap=     0.281 Goal=   None    Shift=    0.000
 RMSDP=1.27D-04 MaxDP=1.85D-03 DE=-2.31D-03 OVMax= 4.10D-03

 Cycle   6  Pass 0  IDiag  1:
 E= -165.279738443414     Delta-E=       -0.000074918155 Rises=F Damp=F
 DIIS: error= 4.95D-04 at cycle   6 NSaved=   6.
 NSaved= 6 IEnMin= 6 EnMin= -165.279738443414     IErMin= 6 ErrMin= 4.95D-04
 ErrMax= 4.95D-04 EMaxC= 1.00D-01 BMatC= 2.84D-05 BMatP= 3.00D-04
 IDIUse=3 WtCom= 9.95D-01 WtEn= 4.95D-03
 Coeff-Com: -0.229D-02-0.138D-01-0.307D-01-0.445D-01 0.153D+00 0.938D+00
 Coeff-En:   0.000D+00 0.000D+00 0.000D+00 0.000D+00 0.000D+00 0.100D+01
 Coeff:     -0.228D-02-0.137D-01-0.306D-01-0.443D-01 0.153D+00 0.938D+00
 Gap=     0.167 Goal=   None    Shift=    0.000
 Gap=     0.281 Goal=   None    Shift=    0.000
 RMSDP=1.07D-04 MaxDP=3.11D-03 DE=-7.49D-05 OVMax= 3.18D-03

 Cycle   7  Pass 0  IDiag  1:
 E= -165.279758397268     Delta-E=       -0.000019953855 Rises=F Damp=F
 DIIS: error= 2.19D-04 at cycle   7 NSaved=   7.
 NSaved= 7 IEnMin= 7 EnMin= -165.279758397268     IErMin= 7 ErrMin= 2.19D-04
 ErrMax= 2.19D-04 EMaxC= 1.00D-01 BMatC= 4.54D-06 BMatP= 2.84D-05
 IDIUse=3 WtCom= 9.98D-01 WtEn= 2.19D-03
 Coeff-Com: -0.652D-03 0.291D-02-0.196D-01-0.500D-01-0.139D+00 0.260D-01
 Coeff-Com:  0.118D+01
 Coeff-En:   0.000D+00 0.000D+00 0.000D+00 0.000D+00 0.000D+00 0.000D+00
 Coeff-En:   0.100D+01
 Coeff:     -0.651D-03 0.290D-02-0.195D-01-0.499D-01-0.139D+00 0.260D-01
 Coeff:      0.118D+01
 Gap=     0.167 Goal=   None    Shift=    0.000
 Gap=     0.281 Goal=   None    Shift=    0.000
 RMSDP=4.67D-05 MaxDP=9.08D-04 DE=-2.00D-05 OVMax= 2.14D-03

 Cycle   8  Pass 0  IDiag  1:
 E= -165.279764182372     Delta-E=       -0.000005785103 Rises=F Damp=F
 DIIS: error= 7.87D-05 at cycle   8 NSaved=   8.
 NSaved= 8 IEnMin= 8 EnMin= -165.279764182372     IErMin= 8 ErrMin= 7.87D-05
 ErrMax= 7.87D-05 EMaxC= 1.00D-01 BMatC= 5.77D-07 BMatP= 4.54D-06
 IDIUse=1 WtCom= 1.00D+00 WtEn= 0.00D+00
 Coeff-Com:  0.605D-03 0.749D-03 0.663D-02 0.125D-01-0.902D-02-0.137D+00
 Coeff-Com: -0.177D+00 0.130D+01
 Coeff:      0.605D-03 0.749D-03 0.663D-02 0.125D-01-0.902D-02-0.137D+00
 Coeff:     -0.177D+00 0.130D+01
 Gap=     0.167 Goal=   None    Shift=    0.000
 Gap=     0.281 Goal=   None    Shift=    0.000
 RMSDP=2.15D-05 MaxDP=3.93D-04 DE=-5.79D-06 OVMax= 1.20D-03

 Cycle   9  Pass 0  IDiag  1:
 E= -165.279765237386     Delta-E=       -0.000001055014 Rises=F Damp=F
 DIIS: error= 2.75D-05 at cycle   9 NSaved=   9.
 NSaved= 9 IEnMin= 9 EnMin= -165.279765237386     IErMin= 9 ErrMin= 2.75D-05
 ErrMax= 2.75D-05 EMaxC= 1.00D-01 BMatC= 9.08D-08 BMatP= 5.77D-07
 IDIUse=1 WtCom= 1.00D+00 WtEn= 0.00D+00
 Coeff-Com:  0.247D-04-0.755D-04 0.235D-02 0.698D-02 0.207D-01-0.575D-02
 Coeff-Com: -0.173D+00 0.105D-01 0.114D+01
 Coeff:      0.247D-04-0.755D-04 0.235D-02 0.698D-02 0.207D-01-0.575D-02
 Coeff:     -0.173D+00 0.105D-01 0.114D+01
 Gap=     0.167 Goal=   None    Shift=    0.000
 Gap=     0.281 Goal=   None    Shift=    0.000
 RMSDP=6.76D-06 MaxDP=1.25D-04 DE=-1.06D-06 OVMax= 3.75D-04

 Initial convergence to 1.0D-05 achieved.  Increase integral accuracy.
 Cycle  10  Pass 1  IDiag  1:
 E= -165.279777286823     Delta-E=       -0.000012049437 Rises=F Damp=F
 DIIS: error= 1.54D-04 at cycle   1 NSaved=   1.
 NSaved= 1 IEnMin= 1 EnMin= -165.279777286823     IErMin= 1 ErrMin= 1.54D-04
 ErrMax= 1.54D-04 EMaxC= 1.00D-01 BMatC= 9.42D-06 BMatP= 9.42D-06
 IDIUse=3 WtCom= 9.98D-01 WtEn= 1.54D-03
 Coeff-Com:  0.100D+01
 Coeff-En:   0.100D+01
 Coeff:      0.100D+01
 Gap=     0.167 Goal=   None    Shift=    0.000
 Gap=     0.281 Goal=   None    Shift=    0.000
 RMSDP=6.76D-06 MaxDP=1.25D-04 DE=-1.20D-05 OVMax= 4.47D-04

 Cycle  11  Pass 1  IDiag  1:
 E= -165.279779303252     Delta-E=       -0.000002016429 Rises=F Damp=F
 DIIS: error= 1.11D-05 at cycle   2 NSaved=   2.
 NSaved= 2 IEnMin= 2 EnMin= -165.279779303252     IErMin= 2 ErrMin= 1.11D-05
 ErrMax= 1.11D-05 EMaxC= 1.00D-01 BMatC= 6.96D-08 BMatP= 9.42D-06
 IDIUse=1 WtCom= 1.00D+00 WtEn= 0.00D+00
 Coeff-Com: -0.559D-02 0.101D+01
 Coeff:     -0.559D-02 0.101D+01
 Gap=     0.167 Goal=   None    Shift=    0.000
 Gap=     0.281 Goal=   None    Shift=    0.000
 RMSDP=5.10D-06 MaxDP=6.93D-05 DE=-2.02D-06 OVMax= 5.97D-05

 Cycle  12  Pass 1  IDiag  1:
 E= -165.279779320197     Delta-E=       -0.000000016945 Rises=F Damp=F
 DIIS: error= 6.00D-06 at cycle   3 NSaved=   3.
 NSaved= 3 IEnMin= 3 EnMin= -165.279779320197     IErMin= 3 ErrMin= 6.00D-06
 ErrMax= 6.00D-06 EMaxC= 1.00D-01 BMatC= 1.24D-08 BMatP= 6.96D-08
 IDIUse=1 WtCom= 1.00D+00 WtEn= 0.00D+00
 Coeff-Com: -0.869D-02 0.246D+00 0.762D+00
 Coeff:     -0.869D-02 0.246D+00 0.762D+00
 Gap=     0.167 Goal=   None    Shift=    0.000
 Gap=     0.281 Goal=   None    Shift=    0.000
 RMSDP=9.24D-07 MaxDP=1.87D-05 DE=-1.69D-08 OVMax= 2.19D-05

 Cycle  13  Pass 1  IDiag  1:
 E= -165.279779322228     Delta-E=       -0.000000002031 Rises=F Damp=F
 DIIS: error= 4.22D-06 at cycle   4 NSaved=   4.
 NSaved= 4 IEnMin= 4 EnMin= -165.279779322228     IErMin= 4 ErrMin= 4.22D-06
 ErrMax= 4.22D-06 EMaxC= 1.00D-01 BMatC= 3.46D-09 BMatP= 1.24D-08
 IDIUse=1 WtCom= 1.00D+00 WtEn= 0.00D+00
 Coeff-Com: -0.390D-02 0.575D-01 0.350D+00 0.597D+00
 Coeff:     -0.390D-02 0.575D-01 0.350D+00 0.597D+00
 Gap=     0.167 Goal=   None    Shift=    0.000
 Gap=     0.281 Goal=   None    Shift=    0.000
 RMSDP=4.93D-07 MaxDP=1.21D-05 DE=-2.03D-09 OVMax= 1.61D-05

 Cycle  14  Pass 1  IDiag  1:
 E= -165.279779322745     Delta-E=       -0.000000000517 Rises=F Damp=F
 DIIS: error= 3.20D-06 at cycle   5 NSaved=   5.
 NSaved= 5 IEnMin= 5 EnMin= -165.279779322745     IErMin= 5 ErrMin= 3.20D-06
 ErrMax= 3.20D-06 EMaxC= 1.00D-01 BMatC= 1.56D-09 BMatP= 3.46D-09
 IDIUse=1 WtCom= 1.00D+00 WtEn= 0.00D+00
 Coeff-Com: -0.143D-02 0.271D-02 0.118D+00 0.408D+00 0.472D+00
 Coeff:     -0.143D-02 0.271D-02 0.118D+00 0.408D+00 0.472D+00
 Gap=     0.167 Goal=   None    Shift=    0.000
 Gap=     0.281 Goal=   None    Shift=    0.000
 RMSDP=2.56D-07 MaxDP=3.88D-06 DE=-5.17D-10 OVMax= 1.13D-05

 Cycle  15  Pass 1  IDiag  1:
 E= -165.279779323071     Delta-E=       -0.000000000326 Rises=F Damp=F
 DIIS: error= 1.13D-06 at cycle   6 NSaved=   6.
 NSaved= 6 IEnMin= 6 EnMin= -165.279779323071     IErMin= 6 ErrMin= 1.13D-06
 ErrMax= 1.13D-06 EMaxC= 1.00D-01 BMatC= 2.14D-10 BMatP= 1.56D-09
 IDIUse=1 WtCom= 1.00D+00 WtEn= 0.00D+00
 Coeff-Com:  0.943D-04-0.120D-01-0.168D-01 0.977D-01 0.276D+00 0.655D+00
 Coeff:      0.943D-04-0.120D-01-0.168D-01 0.977D-01 0.276D+00 0.655D+00
 Gap=     0.167 Goal=   None    Shift=    0.000
 Gap=     0.281 Goal=   None    Shift=    0.000
 RMSDP=1.12D-07 MaxDP=1.67D-06 DE=-3.26D-10 OVMax= 5.77D-06

 Cycle  16  Pass 1  IDiag  1:
 E= -165.279779323161     Delta-E=       -0.000000000090 Rises=F Damp=F
 DIIS: error= 6.85D-07 at cycle   7 NSaved=   7.
 NSaved= 7 IEnMin= 7 EnMin= -165.279779323161     IErMin= 7 ErrMin= 6.85D-07
 ErrMax= 6.85D-07 EMaxC= 1.00D-01 BMatC= 4.15D-11 BMatP= 2.14D-10
 IDIUse=1 WtCom= 1.00D+00 WtEn= 0.00D+00
 Coeff-Com:  0.424D-03-0.356D-02-0.384D-01-0.874D-01-0.638D-01 0.203D+00
 Coeff-Com:  0.990D+00
 Coeff:      0.424D-03-0.356D-02-0.384D-01-0.874D-01-0.638D-01 0.203D+00
 Coeff:      0.990D+00
 Gap=     0.167 Goal=   None    Shift=    0.000
 Gap=     0.281 Goal=   None    Shift=    0.000
 RMSDP=1.09D-07 MaxDP=2.05D-06 DE=-9.01D-11 OVMax= 6.52D-06

 Cycle  17  Pass 1  IDiag  1:
 E= -165.279779323201     Delta-E=       -0.000000000040 Rises=F Damp=F
 DIIS: error= 3.93D-07 at cycle   8 NSaved=   8.
 NSaved= 8 IEnMin= 8 EnMin= -165.279779323201     IErMin= 8 ErrMin= 3.93D-07
 ErrMax= 3.93D-07 EMaxC= 1.00D-01 BMatC= 1.99D-11 BMatP= 4.15D-11
 IDIUse=1 WtCom= 1.00D+00 WtEn= 0.00D+00
 Coeff-Com:  0.216D-03 0.178D-02-0.159D-01-0.907D-01-0.158D+00-0.181D+00
 Coeff-Com:  0.606D+00 0.838D+00
 Coeff:      0.216D-03 0.178D-02-0.159D-01-0.907D-01-0.158D+00-0.181D+00
 Coeff:      0.606D+00 0.838D+00
 Gap=     0.167 Goal=   None    Shift=    0.000
 Gap=     0.281 Goal=   None    Shift=    0.000
 RMSDP=7.50D-08 MaxDP=1.36D-06 DE=-4.04D-11 OVMax= 3.88D-06

 Cycle  18  Pass 1  IDiag  1:
 E= -165.279779323218     Delta-E=       -0.000000000016 Rises=F Damp=F
 DIIS: error= 1.10D-07 at cycle   9 NSaved=   9.
 NSaved= 9 IEnMin= 9 EnMin= -165.279779323218     IErMin= 9 ErrMin= 1.10D-07
 ErrMax= 1.10D-07 EMaxC= 1.00D-01 BMatC= 1.03D-12 BMatP= 1.99D-11
 IDIUse=1 WtCom= 1.00D+00 WtEn= 0.00D+00
 Coeff-Com: -0.409D-04 0.869D-03 0.483D-02 0.428D-02-0.147D-01-0.614D-01
 Coeff-Com: -0.893D-01 0.136D+00 0.102D+01
 Coeff:     -0.409D-04 0.869D-03 0.483D-02 0.428D-02-0.147D-01-0.614D-01
 Coeff:     -0.893D-01 0.136D+00 0.102D+01
 Gap=     0.167 Goal=   None    Shift=    0.000
 Gap=     0.281 Goal=   None    Shift=    0.000
 RMSDP=2.71D-08 MaxDP=5.47D-07 DE=-1.63D-11 OVMax= 1.44D-06

 Cycle  19  Pass 1  IDiag  1:
 E= -165.279779323218     Delta-E=       -0.000000000001 Rises=F Damp=F
 DIIS: error= 2.14D-08 at cycle  10 NSaved=  10.
 NSaved=10 IEnMin=10 EnMin= -165.279779323218     IErMin=10 ErrMin= 2.14D-08
 ErrMax= 2.14D-08 EMaxC= 1.00D-01 BMatC= 5.92D-14 BMatP= 1.03D-12
 IDIUse=1 WtCom= 1.00D+00 WtEn= 0.00D+00
 Coeff-Com: -0.222D-04-0.178D-04 0.203D-02 0.763D-02 0.110D-01 0.810D-02
 Coeff-Com: -0.587D-01-0.595D-01 0.120D+00 0.970D+00
 Coeff:     -0.222D-04-0.178D-04 0.203D-02 0.763D-02 0.110D-01 0.810D-02
 Coeff:     -0.587D-01-0.595D-01 0.120D+00 0.970D+00
 Gap=     0.167 Goal=   None    Shift=    0.000
 Gap=     0.281 Goal=   None    Shift=    0.000
 RMSDP=5.51D-09 MaxDP=9.09D-08 DE=-6.82D-13 OVMax= 2.72D-07

 SCF Done:  E(UM06) =  -165.279779323     A.U. after   19 cycles
             Convg  =    0.5507D-08             -V/T =  2.0018
 <Sx>= 0.0000 <Sy>= 0.0000 <Sz>= 0.5000 <S**2>= 0.7538 S= 0.5019
 <L.S>=  0.00000000000    
 KE= 1.649906714293D+02 PE=-5.199332020685D+02 EE= 1.233251124596D+02
 Annihilation of the first spin contaminant:
 S**2 before annihilation     0.7538,   after     0.7500
 Leave Link  502 at Fri Apr 25 17:10:04 2014, MaxMem=   65536000 cpu:      16.1
 (Enter /apps/gaussian/g09/l801.exe)
 Range of M.O.s used for correlation:     1    66
 NBasis=    66 NAE=    12 NBE=    11 NFC=     0 NFV=     0
 NROrb=     66 NOA=    12 NOB=    11 NVA=    54 NVB=    55
 Leave Link  801 at Fri Apr 25 17:10:04 2014, MaxMem=   65536000 cpu:       0.2
 (Enter /apps/gaussian/g09/l1101.exe)
 Using compressed storage, NAtomX=     5.
 Will process   6 centers per pass.
 Leave Link 1101 at Fri Apr 25 17:10:04 2014, MaxMem=   65536000 cpu:       1.2
 (Enter /apps/gaussian/g09/l1102.exe)
 Symmetrizing basis deriv contribution to polar:
 IMax=3 JMax=2 DiffMx= 0.00D+00
 Leave Link 1102 at Fri Apr 25 17:10:04 2014, MaxMem=   65536000 cpu:       0.2
 (Enter /apps/gaussian/g09/l1110.exe)
 Forming Gx(P) for the SCF density, NAtomX=     5.
 Integral derivatives from FoFDir/FoFCou, PRISM(SPDF).
 Do as many integral derivatives as possible in FoFDir.
 G2DrvN: MDV=      65535856.
 G2DrvN: will do     6 centers at a time, making    1 passes doing MaxLOS=2.
 Calling FoFCou, ICntrl=  3107 FMM=F I1Cent=   0 AccDes= 0.00D+00.
 FoFCou: FMM=F IPFlag=           0 FMFlag=      100000 FMFlg1=           0
         NFxFlg=           0 DoJE=F BraDBF=F KetDBF=F FulRan=T
         Omega=  0.000000  0.000000  1.000000  0.000000  0.000000 ICntrl=    3107 IOpCl=  1
         NMat0=    1 NMatS0=    1 NMatT0=    0 NMatD0=    1 NMtDS0=    0 NMtDT0=    0
         I1Cent=           0 NGrid=           0.
 Symmetry not used in FoFCou.
 FoFDir/FoFCou used for L=0 through L=2.
 End of G2Drv Frequency-dependent properties file   721 does not exist.
 End of G2Drv Frequency-dependent properties file   722 does not exist.
 Leave Link 1110 at Fri Apr 25 17:10:05 2014, MaxMem=   65536000 cpu:      18.3
 (Enter /apps/gaussian/g09/l1002.exe)
 Minotr:  UHF open shell wavefunction.
          IDoAtm=11111
          Direct CPHF calculation.
          Differentiating once with respect to electric field.
                with respect to dipole field.
          Differentiating once with respect to nuclear coordinates.
          Requested convergence is 1.0D-08 RMS, and 1.0D-07 maximum.
          Secondary convergence is 1.0D-12 RMS, and 1.0D-12 maximum.
          NewPWx=T KeepS1=F KeepF1=F KeepIn=T MapXYZ=F SortEE=F KeepMc=T.
          MDV=      65535946 using IRadAn=       2.
 Generate precomputed XC quadrature information.
          Keep R1 and R2 ints in memory in canonical form, NReq=6656460.
 Symmetry not used in FoFDir.
 MinBra= 0 MaxBra= 2 Meth= 1.
 IRaf=       0 NMat=   1 IRICut=       1 DoRegI=T DoRafI=F ISym2E= 0 JSym2E=0.
          Solving linear equations simultaneously, MaxMat=       0.
          There are    18 degrees of freedom in the 1st order CPHF.  IDoFFX=5.
     15 vectors produced by pass  0 Test12= 6.96D-15 5.56D-09 XBig12= 9.23D+01 4.39D+00.
 AX will form    15 AO Fock derivatives at one time.
     15 vectors produced by pass  1 Test12= 6.96D-15 5.56D-09 XBig12= 3.11D+01 1.46D+00.
     15 vectors produced by pass  2 Test12= 6.96D-15 5.56D-09 XBig12= 7.47D-01 1.77D-01.
     15 vectors produced by pass  3 Test12= 6.96D-15 5.56D-09 XBig12= 7.96D-03 1.94D-02.
     15 vectors produced by pass  4 Test12= 6.96D-15 5.56D-09 XBig12= 1.04D-04 1.85D-03.
     15 vectors produced by pass  5 Test12= 6.96D-15 5.56D-09 XBig12= 7.40D-07 1.60D-04.
     15 vectors produced by pass  6 Test12= 6.96D-15 5.56D-09 XBig12= 3.37D-09 9.73D-06.
      8 vectors produced by pass  7 Test12= 6.96D-15 5.56D-09 XBig12= 1.63D-11 8.09D-07.
      2 vectors produced by pass  8 Test12= 6.96D-15 5.56D-09 XBig12= 5.57D-14 5.73D-08.
 Inverted reduced A of dimension   115 with in-core refinement.
 FullF1:  Do perturbations    1 to     3.
 Isotropic polarizability for W=    0.000000       22.62 Bohr**3.
 End of Minotr Frequency-dependent properties file   721 does not exist.
 End of Minotr Frequency-dependent properties file   722 does not exist.
 Leave Link 1002 at Fri Apr 25 17:10:08 2014, MaxMem=   65536000 cpu:      26.1
 (Enter /apps/gaussian/g09/l601.exe)
 Copying SCF densities to generalized density rwf, IOpCl= 1 IROHF=0.

 **********************************************************************

            Population analysis using the SCF density.

 **********************************************************************

 Orbital symmetries:
 Alpha Orbitals:
       Occupied  (A) (A) (A) (A) (A) (A) (A) (A) (A) (A) (A) (A)
       Virtual   (A) (A) (A) (A) (A) (A) (A) (A) (A) (A) (A) (A)
                 (A) (A) (A) (A) (A) (A) (A) (A) (A) (A) (A) (A)
                 (A) (A) (A) (A) (A) (A) (A) (A) (A) (A) (A) (A)
                 (A) (A) (A) (A) (A) (A) (A) (A) (A) (A) (A) (A)
                 (A) (A) (A) (A) (A) (A)
 Beta  Orbitals:
       Occupied  (A) (A) (A) (A) (A) (A) (A) (A) (A) (A) (A)
       Virtual   (A) (A) (A) (A) (A) (A) (A) (A) (A) (A) (A) (A)
                 (A) (A) (A) (A) (A) (A) (A) (A) (A) (A) (A) (A)
                 (A) (A) (A) (A) (A) (A) (A) (A) (A) (A) (A) (A)
                 (A) (A) (A) (A) (A) (A) (A) (A) (A) (A) (A) (A)
                 (A) (A) (A) (A) (A) (A) (A)
 The electronic state is 2-A.
 Alpha  occ. eigenvalues --  -14.48445 -14.46370 -14.42002  -1.10689  -0.96591
 Alpha  occ. eigenvalues --   -0.67786  -0.58430  -0.48261  -0.45869  -0.41580
 Alpha  occ. eigenvalues --   -0.31607  -0.16331
 Alpha virt. eigenvalues --    0.00366   0.02695   0.07400   0.19169   0.33708
 Alpha virt. eigenvalues --    0.35079   0.44758   0.49256   0.52182   0.58258
 Alpha virt. eigenvalues --    0.61025   0.65865   0.69156   0.70353   0.73460
 Alpha virt. eigenvalues --    0.76484   0.81734   0.95519   1.13040   1.28047
 Alpha virt. eigenvalues --    1.36015   1.50632   1.63794   1.66269   1.69836
 Alpha virt. eigenvalues --    1.73912   1.76570   1.88534   1.95022   2.08990
 Alpha virt. eigenvalues --    2.12399   2.25732   2.33450   2.37244   2.49677
 Alpha virt. eigenvalues --    2.50845   2.63118   2.75161   2.87619   3.01436
 Alpha virt. eigenvalues --    3.11513   3.40290   3.56434   3.62311   3.84159
 Alpha virt. eigenvalues --    3.90554   3.92496   4.13568   4.34565   4.63919
 Alpha virt. eigenvalues --    5.19906  35.05406  35.44293  35.92986
  Beta  occ. eigenvalues --  -14.47903 -14.46201 -14.40812  -1.08745  -0.94615
  Beta  occ. eigenvalues --   -0.66273  -0.57447  -0.47366  -0.42034  -0.37610
  Beta  occ. eigenvalues --   -0.30806
  Beta virt. eigenvalues --   -0.02722   0.01712   0.03377   0.08005   0.20203
  Beta virt. eigenvalues --    0.33902   0.35140   0.45064   0.49507   0.52294
  Beta virt. eigenvalues --    0.59243   0.61289   0.66184   0.69935   0.71658
  Beta virt. eigenvalues --    0.74038   0.77072   0.82246   0.95891   1.13094
  Beta virt. eigenvalues --    1.27910   1.35595   1.49853   1.63815   1.66233
  Beta virt. eigenvalues --    1.70735   1.75729   1.77849   1.89560   1.95929
  Beta virt. eigenvalues --    2.12127   2.14881   2.26261   2.31963   2.38159
  Beta virt. eigenvalues --    2.49637   2.51407   2.63720   2.74918   2.88153
  Beta virt. eigenvalues --    3.01920   3.13791   3.40352   3.57467   3.68815
  Beta virt. eigenvalues --    3.84688   3.93987   3.97725   4.13239   4.35817
  Beta virt. eigenvalues --    4.62506   5.19955  35.06499  35.44628  35.94205
     Alpha Molecular Orbital Coefficients:
                           1         2         3         4         5
                           O         O         O         O         O
     Eigenvalues --   -14.48445 -14.46370 -14.42002  -1.10689  -0.96591
   1 1   N  1S          0.55749  -0.00347  -0.00344  -0.09780   0.01405
   2        2S          0.46486  -0.00278  -0.00235  -0.15191   0.02127
   3        2PX        -0.00063  -0.00056   0.00103   0.02078  -0.14316
   4        2PY         0.00081   0.00006   0.00021   0.02960  -0.01061
   5        2PZ        -0.00008  -0.00004   0.00003   0.00083  -0.00278
   6        3S          0.01716  -0.00036  -0.00214   0.42799  -0.05776
   7        3PX         0.00266   0.00160  -0.00480   0.01647  -0.19956
   8        3PY         0.00117  -0.00010  -0.00103   0.04400  -0.01217
   9        3PZ         0.00010   0.00011  -0.00014   0.00088  -0.00351
  10        4S         -0.00713   0.00135   0.00314   0.21752  -0.02074
  11        4PX         0.00055  -0.00441   0.00570  -0.00833  -0.03581
  12        4PY        -0.00124   0.00008   0.00060   0.01840  -0.00570
  13        4PZ        -0.00008  -0.00030   0.00020   0.00162  -0.00023
  14        5D 0       -0.00156   0.00043   0.00118  -0.01248  -0.00147
  15        5D+1        0.00020  -0.00011  -0.00011   0.00093  -0.00050
  16        5D-1        0.00001   0.00001  -0.00003   0.00002  -0.00019
  17        5D+2        0.00260  -0.00072  -0.00178   0.01729   0.00240
  18        5D-2        0.00067   0.00032  -0.00113   0.00185  -0.00950
  19 2   N  1S          0.00329  -0.00018   0.55734  -0.06240   0.06711
  20        2S          0.00335  -0.00013   0.46527  -0.09675   0.10490
  21        2PX        -0.00079  -0.00005  -0.00156  -0.07216   0.06564
  22        2PY        -0.00027   0.00004  -0.00027  -0.01729   0.02215
  23        2PZ        -0.00002  -0.00001  -0.00005  -0.00197   0.00200
  24        3S         -0.00227  -0.00010   0.01642   0.27303  -0.29841
  25        3PX         0.00424   0.00016  -0.00335  -0.10074   0.09083
  26        3PY         0.00131  -0.00015  -0.00094  -0.02230   0.03120
  27        3PZ         0.00011   0.00004  -0.00009  -0.00270   0.00280
  28        4S          0.00067   0.00269  -0.01010   0.10954  -0.16586
  29        4PX        -0.00101  -0.00090   0.00329  -0.01783   0.03065
  30        4PY         0.00012  -0.00052   0.00118  -0.00706   0.00901
  31        4PZ         0.00001  -0.00001   0.00008  -0.00074   0.00056
  32        5D 0        0.00131   0.00002  -0.00102  -0.00827   0.00792
  33        5D+1       -0.00011  -0.00003   0.00010   0.00075  -0.00078
  34        5D-1       -0.00004  -0.00001   0.00002   0.00015  -0.00025
  35        5D+2       -0.00179  -0.00017   0.00161   0.01240  -0.00963
  36        5D-2       -0.00132   0.00014   0.00085   0.00556  -0.00820
  37 3   N  1S          0.00345   0.55763   0.00017  -0.05723  -0.08909
  38        2S          0.00301   0.46489   0.00016  -0.08879  -0.13885
  39        2PX         0.00072   0.00082   0.00015   0.04036   0.02047
  40        2PY        -0.00020  -0.00012   0.00004  -0.00730  -0.01089
  41        2PZ        -0.00004   0.00087  -0.00002   0.01164   0.02308
  42        3S         -0.00024   0.01705  -0.00007   0.24794   0.38968
  43        3PX        -0.00227  -0.00092  -0.00047   0.06633   0.04016
  44        3PY         0.00066  -0.00013  -0.00009  -0.00977  -0.01711
  45        3PZ         0.00024   0.00109   0.00006   0.01723   0.03517
  46        4S          0.00266  -0.00752   0.00241   0.11482   0.26168
  47        4PX         0.00175  -0.00245   0.00138   0.00234   0.01542
  48        4PY         0.00056   0.00105  -0.00039  -0.00522  -0.00426
  49        4PZ         0.00028   0.00002  -0.00001   0.00696   0.01689
  50        5D 0        0.00044  -0.00091   0.00003  -0.00622  -0.00715
  51        5D+1       -0.00026  -0.00050  -0.00002   0.00163   0.00005
  52        5D-1        0.00014  -0.00006   0.00002  -0.00094  -0.00148
  53        5D+2       -0.00113  -0.00034  -0.00027   0.00784   0.00418
  54        5D-2        0.00062  -0.00006  -0.00019  -0.00170  -0.00394
  55 4   H  1S         -0.00018  -0.00011  -0.00007   0.03059   0.06603
  56        2S         -0.00046  -0.00214   0.00007   0.02760   0.06236
  57        3S          0.00063   0.00112   0.00029  -0.00914  -0.00584
  58        4PX        -0.00007  -0.00099   0.00009   0.00575   0.00824
  59        4PY        -0.00039  -0.00190  -0.00001   0.00619   0.01226
  60        4PZ         0.00008   0.00087   0.00000  -0.00243  -0.00514
  61 5   H  1S         -0.00009  -0.00000  -0.00001   0.02727   0.05768
  62        2S         -0.00143  -0.00255  -0.00024   0.02897   0.05248
  63        3S          0.00050   0.00104   0.00038  -0.00859  -0.00290
  64        4PX        -0.00037  -0.00052  -0.00004   0.00413   0.00487
  65        4PY         0.00052   0.00200   0.00008  -0.00715  -0.01289
  66        4PZ         0.00015   0.00075   0.00003  -0.00214  -0.00334
                           6         7         8         9        10
                           O         O         O         O         O
     Eigenvalues --    -0.67786  -0.58430  -0.48261  -0.45869  -0.41580
   1 1   N  1S         -0.05168   0.00217  -0.01100   0.03858   0.00309
   2        2S         -0.08236   0.00379  -0.01760   0.06204   0.00470
   3        2PX        -0.12213  -0.02009  -0.00641  -0.09746  -0.06147
   4        2PY        -0.01098   0.10899   0.01035   0.09496  -0.17043
   5        2PZ        -0.01705  -0.01313   0.20122   0.02072   0.01908
   6        3S          0.24820  -0.01205   0.05307  -0.19053  -0.01786
   7        3PX        -0.17531  -0.03404  -0.01052  -0.14125  -0.08824
   8        3PY        -0.01275   0.16674   0.01635   0.14211  -0.25372
   9        3PZ        -0.02722  -0.02040   0.30820   0.03150   0.02861
  10        4S          0.23159   0.00759   0.05339  -0.23296  -0.02544
  11        4PX        -0.08867   0.02349   0.01596  -0.08135  -0.04336
  12        4PY        -0.00795   0.11366   0.01231   0.10504  -0.21700
  13        4PZ        -0.00711  -0.01173   0.23095   0.02655   0.02742
  14        5D 0       -0.00277  -0.00205   0.00000  -0.00395   0.00446
  15        5D+1        0.00313   0.00119   0.00168   0.00111   0.00316
  16        5D-1       -0.00129  -0.00060   0.01241   0.00148   0.00083
  17        5D+2        0.00539  -0.01505  -0.00157  -0.00614   0.01546
  18        5D-2       -0.00317  -0.01285  -0.00118   0.00765  -0.02084
  19 2   N  1S          0.04126   0.00771   0.01467  -0.06767  -0.03537
  20        2S          0.06550   0.01188   0.02339  -0.10789  -0.05645
  21        2PX         0.00743  -0.01485  -0.02993   0.13075   0.16613
  22        2PY         0.00832   0.04688  -0.00029   0.13572  -0.11536
  23        2PZ        -0.00404  -0.00554   0.12679   0.02086   0.02389
  24        3S         -0.19149  -0.03316  -0.06761   0.30634   0.15721
  25        3PX         0.01172  -0.02482  -0.04111   0.17450   0.23400
  26        3PY         0.01282   0.07042   0.00094   0.19752  -0.17568
  27        3PZ        -0.00646  -0.00910   0.19456   0.03109   0.03561
  28        4S         -0.15167  -0.07579  -0.10691   0.46803   0.29271
  29        4PX         0.00610   0.00677  -0.01631   0.08940   0.14332
  30        4PY         0.00228   0.03740   0.00289   0.12832  -0.12828
  31        4PZ        -0.00460  -0.00280   0.11565   0.01933   0.02425
  32        5D 0        0.00205  -0.00164  -0.00292   0.00858   0.00842
  33        5D+1        0.00168   0.00191  -0.03024  -0.00433  -0.00479
  34        5D-1        0.00038   0.00012  -0.00730  -0.00163  -0.00046
  35        5D+2       -0.00098   0.00822   0.00418  -0.00588  -0.02496
  36        5D-2       -0.00258  -0.01076   0.00009  -0.02570   0.01825
  37 3   N  1S          0.03957  -0.00117   0.01778  -0.00493  -0.00202
  38        2S          0.06211  -0.00199   0.02849  -0.00803  -0.00309
  39        2PX         0.16768   0.06362   0.01881   0.05092   0.04200
  40        2PY        -0.05564   0.19673   0.01334  -0.05798   0.07537
  41        2PZ        -0.04038  -0.02076   0.13258   0.01145  -0.00494
  42        3S         -0.16930   0.00752  -0.08803   0.02831   0.00808
  43        3PX         0.24756   0.09939   0.02476   0.08023   0.05817
  44        3PY        -0.08067   0.28920   0.01962  -0.08365   0.10674
  45        3PZ        -0.06029  -0.03119   0.20424   0.01854  -0.00556
  46        4S         -0.20181   0.01938  -0.06212   0.02277   0.03782
  47        4PX         0.10849   0.06318   0.03639   0.05671   0.06316
  48        4PY        -0.03552   0.16802   0.00431  -0.04975   0.07707
  49        4PZ        -0.03684  -0.01812   0.16535   0.01420  -0.00344
  50        5D 0       -0.00537  -0.00294   0.00874  -0.00071  -0.00083
  51        5D+1        0.00904   0.00331   0.02115   0.00517   0.00364
  52        5D-1       -0.00239   0.01602  -0.00320  -0.00457   0.00618
  53        5D+2        0.01816   0.00823  -0.00016   0.00702  -0.00432
  54        5D-2       -0.00876   0.00301   0.00092   0.00561  -0.01636
  55 4   H  1S         -0.07822  -0.14450   0.00284   0.02612  -0.07838
  56        2S         -0.08436  -0.18295  -0.01349   0.04251  -0.12372
  57        3S         -0.01753  -0.03980   0.00184   0.00683  -0.04423
  58        4PX         0.00460  -0.01084   0.00161   0.00543  -0.00226
  59        4PY        -0.01382  -0.00847   0.00054   0.00112  -0.00610
  60        4PZ         0.00201   0.00785   0.01112  -0.00186   0.00461
  61 5   H  1S         -0.11869   0.10679   0.01379  -0.05589   0.05709
  62        2S         -0.14015   0.14061   0.01071  -0.09179   0.08766
  63        3S         -0.02509   0.03143   0.00849  -0.02505   0.04168
  64        4PX         0.00086   0.01198   0.00246   0.00045   0.00382
  65        4PY         0.01890  -0.00900  -0.00209   0.00485  -0.00209
  66        4PZ         0.00486  -0.00792   0.00834   0.00366  -0.00296
                          11        12        13        14        15
                           O         O         V         V         V
     Eigenvalues --    -0.31607  -0.16331   0.00366   0.02695   0.07400
   1 1   N  1S         -0.00489  -0.02730   0.00045  -0.00189   0.00291
   2        2S         -0.00805  -0.04406   0.00112  -0.00331   0.00437
   3        2PX        -0.01531  -0.02553   0.00140  -0.02007  -0.01156
   4        2PY        -0.00550  -0.18021  -0.02458   0.05145   0.03304
   5        2PZ        -0.07262  -0.00411   0.21019   0.09241   0.02106
   6        3S          0.02800   0.11674  -0.01211   0.01145  -0.00331
   7        3PX        -0.02396  -0.02829   0.01781  -0.05840  -0.01708
   8        3PY        -0.00734  -0.26455  -0.03604   0.07700   0.05628
   9        3PZ        -0.10824  -0.00549   0.31592   0.13957   0.03116
  10        4S         -0.00562   0.34247   0.08788  -0.04764  -0.11479
  11        4PX         0.03598  -0.13328  -0.17793   0.17806  -0.00692
  12        4PY        -0.01323  -0.35367  -0.06268   0.11995   0.09623
  13        4PZ        -0.10990  -0.00911   0.49538   0.23386   0.05970
  14        5D 0       -0.00217   0.01141  -0.00158   0.00533  -0.00351
  15        5D+1       -0.04170  -0.00039  -0.02318  -0.00580   0.00015
  16        5D-1       -0.00395   0.00135  -0.00277  -0.00391   0.00304
  17        5D+2        0.00078  -0.01792   0.00502  -0.01342   0.01070
  18        5D-2       -0.00188   0.03032   0.00311  -0.00689   0.00641
  19 2   N  1S         -0.00074   0.00877  -0.00214   0.00687  -0.00220
  20        2S         -0.00119   0.01522  -0.00334   0.01118  -0.00365
  21        2PX         0.01954  -0.01087  -0.00564   0.03686  -0.00771
  22        2PY        -0.00104   0.23808   0.02329  -0.04096  -0.04472
  23        2PZ        -0.16591   0.00260  -0.20403  -0.08764  -0.01928
  24        3S          0.00263  -0.06745   0.01170  -0.04495   0.01638
  25        3PX         0.02789  -0.01393  -0.00700   0.04977  -0.01107
  26        3PY        -0.00129   0.34428   0.03325  -0.05817  -0.06640
  27        3PZ        -0.24749   0.00353  -0.28717  -0.12451  -0.02704
  28        4S         -0.01185   0.08271   0.11938  -0.16368   0.00682
  29        4PX         0.03013  -0.09053  -0.04992   0.11947  -0.00472
  30        4PY         0.00424   0.42963   0.03314  -0.07413  -0.09590
  31        4PZ        -0.21753   0.00351  -0.49251  -0.21316  -0.05049
  32        5D 0        0.00170   0.00163   0.00005  -0.00138   0.00079
  33        5D+1        0.02254  -0.00013  -0.00806  -0.00411  -0.00171
  34        5D-1        0.00569   0.00005  -0.00340  -0.00204   0.00038
  35        5D+2       -0.00167  -0.00248  -0.00142   0.00394  -0.00062
  36        5D-2       -0.00065  -0.00624   0.00130  -0.00289  -0.00333
  37 3   N  1S          0.02321   0.02674  -0.02741   0.04081   0.00914
  38        2S          0.03741   0.04326  -0.04361   0.06432   0.01439
  39        2PX         0.03331  -0.06847  -0.04333   0.04158   0.00743
  40        2PY         0.00952   0.02033   0.00396   0.02386  -0.16476
  41        2PZ         0.22543  -0.01314  -0.06980  -0.09135  -0.01567
  42        3S         -0.11682  -0.13322   0.11658  -0.16439  -0.03404
  43        3PX         0.04579  -0.11767  -0.05558   0.03438   0.01915
  44        3PY         0.01415   0.02646   0.00663   0.02521  -0.18472
  45        3PZ         0.33239  -0.02238  -0.08932  -0.13015  -0.02670
  46        4S         -0.10070  -0.38549   0.40520  -0.78475  -0.21257
  47        4PX         0.07900  -0.11788  -0.22856   0.30110   0.00073
  48        4PY         0.00628  -0.00447   0.05727   0.08843  -0.70707
  49        4PZ         0.38814  -0.04371  -0.17505  -0.26485  -0.03995
  50        5D 0        0.01090  -0.00292   0.00038  -0.00556  -0.00223
  51        5D+1        0.00425  -0.00291   0.02409   0.01023   0.00342
  52        5D-1       -0.00034   0.00347  -0.00391  -0.00343  -0.00014
  53        5D+2       -0.00029  -0.00656  -0.00077   0.00129  -0.00337
  54        5D-2       -0.00125  -0.02521  -0.00404   0.01009  -0.01191
  55 4   H  1S          0.02805  -0.02928  -0.05339   0.05311  -0.02550
  56        2S          0.01721  -0.06567  -0.06962   0.01422   0.02281
  57        3S          0.01890   0.01991  -0.41042   1.16523  -1.22270
  58        4PX         0.00444  -0.00125   0.00929  -0.01379   0.00972
  59        4PY         0.00411  -0.00111  -0.00035  -0.01649   0.01166
  60        4PZ         0.01948   0.00058  -0.01199   0.00061  -0.01135
  61 5   H  1S          0.03383   0.06656  -0.03463   0.01008   0.03998
  62        2S          0.03210   0.16416  -0.10298  -0.01103   0.04740
  63        3S          0.02424   0.23533  -0.31376   0.47912   1.57769
  64        4PX         0.00262  -0.00669   0.00209  -0.00651  -0.00967
  65        4PY        -0.00327  -0.00301   0.00103   0.01175   0.02396
  66        4PZ         0.01731  -0.00260  -0.01220  -0.00592   0.00851
                          16        17        18        19        20
                           V         V         V         V         V
     Eigenvalues --     0.19169   0.33708   0.35079   0.44758   0.49256
   1 1   N  1S         -0.06922  -0.00605   0.01642   0.01188   0.03742
   2        2S         -0.11303  -0.00659   0.02800   0.01633   0.07219
   3        2PX        -0.11662   0.04741   0.04926  -0.15014  -0.07571
   4        2PY         0.10331  -0.05112  -0.06054  -0.05602   0.06250
   5        2PZ        -0.01556   0.00840  -0.03452   0.00263  -0.01671
   6        3S          0.31615  -0.06994  -0.11110   0.04060  -0.50640
   7        3PX        -0.19288   0.09279   0.02228  -0.25660  -0.07980
   8        3PY         0.16821  -0.09128  -0.11691  -0.08589   0.15285
   9        3PZ        -0.01521   0.00600  -0.06051   0.02944  -0.04591
  10        4S          2.08024   0.36241  -0.19809  -1.62795  -1.89179
  11        4PX        -0.58981   0.24098   1.18085  -3.73672  -0.88366
  12        4PY         0.49153  -0.27285  -0.09549  -0.54283  -0.46800
  13        4PZ        -0.11119   0.13379  -0.12554  -0.15962   0.05903
  14        5D 0        0.02246   0.01123   0.01185  -0.02047   0.02338
  15        5D+1       -0.00459  -0.00230  -0.00983  -0.00370  -0.00819
  16        5D-1        0.00101  -0.01321   0.00178  -0.00890   0.00234
  17        5D+2       -0.03642  -0.03256   0.00290   0.02501  -0.03782
  18        5D-2       -0.00839  -0.02343  -0.01929  -0.00655   0.01824
  19 2   N  1S          0.02897   0.02746   0.00897  -0.04954   0.00251
  20        2S          0.04825   0.04857   0.01594  -0.08274   0.01326
  21        2PX         0.13144   0.06777  -0.00439  -0.04802   0.06287
  22        2PY        -0.02657   0.00415   0.00566   0.00428  -0.02524
  23        2PZ         0.01219   0.00665   0.00675   0.01102   0.00224
  24        3S         -0.17562  -0.23475  -0.08465   0.24027  -0.27527
  25        3PX         0.18884   0.11897   0.01545  -0.02398   0.30017
  26        3PY        -0.02089  -0.04021  -0.01678   0.04685   0.01139
  27        3PZ         0.01541   0.02812  -0.00662   0.04266   0.00373
  28        4S         -0.36008  -0.19321  -0.74681   3.86238   2.00228
  29        4PX         0.47716   0.15135   0.24486  -2.39277  -1.66919
  30        4PY        -0.19129   0.25189   0.28290  -0.82380  -0.40652
  31        4PZ         0.05984  -0.06978   0.10943  -0.10385  -0.05474
  32        5D 0        0.00164  -0.00622  -0.00197   0.00333   0.01381
  33        5D+1        0.00078  -0.00019   0.00573  -0.00269   0.00329
  34        5D-1        0.00035  -0.00151   0.00410  -0.00166  -0.00079
  35        5D+2        0.00994  -0.00231  -0.00742  -0.01003  -0.00744
  36        5D-2       -0.00960   0.00802   0.00795   0.00026  -0.03924
  37 3   N  1S          0.03971   0.01686  -0.04202   0.01045   0.00841
  38        2S          0.06494   0.03104  -0.07018   0.01305   0.01931
  39        2PX        -0.20844  -0.01195  -0.02084   0.05896  -0.15462
  40        2PY         0.01381   0.09805   0.04284   0.06209  -0.05327
  41        2PZ         0.01120  -0.02212   0.05644   0.02901   0.01343
  42        3S         -0.19254  -0.15141   0.16688   0.10086  -0.17802
  43        3PX        -0.27314  -0.08861  -0.08268   0.26842  -0.54583
  44        3PY         0.02421   0.22704   0.10278   0.09649  -0.11172
  45        3PZ         0.01404  -0.04474   0.13460   0.08156   0.04002
  46        4S         -0.93281  -0.12028   1.86252  -2.41826   0.13557
  47        4PX        -1.30694   0.64654   0.11012  -1.77199   0.90928
  48        4PY         0.15731   0.89343   0.11616   1.34824   0.16138
  49        4PZ         0.05789  -0.26230   0.49618  -0.25298  -0.06708
  50        5D 0       -0.01186  -0.00233   0.02170  -0.00658   0.00956
  51        5D+1       -0.00878  -0.00155  -0.00594   0.00680   0.00127
  52        5D-1        0.00210  -0.00881  -0.00459  -0.00380   0.01400
  53        5D+2        0.03540  -0.01167   0.00578   0.01412  -0.01415
  54        5D-2       -0.00026   0.02072   0.01145  -0.02865   0.00047
  55 4   H  1S         -0.00063   0.12179  -0.06130   0.01518  -0.03233
  56        2S         -0.06446   1.72973  -0.99777   0.86972  -0.20225
  57        3S         -0.26532  -0.92392   0.26123  -0.37562   0.32933
  58        4PX        -0.02851   0.01255  -0.03928   0.03433   0.03202
  59        4PY         0.01649   0.02149   0.01565   0.02480   0.01818
  60        4PZ        -0.00368   0.00378   0.03657   0.00908  -0.02450
  61 5   H  1S         -0.01097  -0.04630  -0.13319  -0.01289   0.01713
  62        2S         -0.16726  -0.62191  -1.74866  -0.63909   0.11799
  63        3S         -0.16344   0.45155   0.90154   0.00665  -0.17580
  64        4PX        -0.02748   0.02093  -0.01754  -0.02339  -0.01297
  65        4PY        -0.00679   0.02966   0.01150   0.01258   0.00096
  66        4PZ         0.00075  -0.02154   0.02285  -0.02278   0.01573
                          21        22        23        24        25
                           V         V         V         V         V
     Eigenvalues --     0.52182   0.58258   0.61025   0.65865   0.69156
   1 1   N  1S         -0.00500  -0.01724   0.00082   0.01798  -0.00298
   2        2S         -0.01031  -0.03257   0.00076   0.03457  -0.00314
   3        2PX        -0.03111  -0.02984  -0.02139   0.01360   0.00945
   4        2PY        -0.02073  -0.11688   0.00204  -0.03883  -0.13827
   5        2PZ        -0.10603   0.02232   0.07402  -0.02379   0.09027
   6        3S          0.08408   0.20608   0.00888  -0.21325  -0.06623
   7        3PX        -0.06107  -0.05185  -0.08787  -0.17645  -0.04204
   8        3PY        -0.06028  -0.48480   0.02736  -0.12048  -0.49468
   9        3PZ        -0.41742   0.08534   0.28847  -0.08922   0.29783
  10        4S         -0.42004  -0.30672  -0.37064   0.66995   0.25742
  11        4PX        -0.06131   0.30434   0.82336   0.23459   1.48571
  12        4PY         0.01029   0.70076  -0.00808  -0.10437   1.51862
  13        4PZ         0.35633  -0.14251  -0.57568   0.19448  -0.64202
  14        5D 0        0.00315   0.01271   0.01000  -0.00572   0.02303
  15        5D+1        0.00727   0.01070   0.06026   0.00482  -0.00853
  16        5D-1       -0.01537   0.00580   0.01353  -0.01598   0.01841
  17        5D+2        0.00208   0.02643  -0.00969   0.01132  -0.00985
  18        5D-2       -0.00034  -0.01519  -0.00083   0.00364   0.00228
  19 2   N  1S         -0.01016  -0.00979  -0.00298   0.04074   0.00407
  20        2S         -0.01799  -0.01825  -0.00530   0.07826   0.00777
  21        2PX         0.00097   0.04385  -0.01034  -0.05642   0.01467
  22        2PY         0.00046  -0.16445   0.04135   0.05546   0.13089
  23        2PZ        -0.09769   0.02579   0.14922   0.02178  -0.08473
  24        3S          0.07335   0.08955   0.01487  -0.53198  -0.06418
  25        3PX         0.03096   0.17556  -0.00516  -0.20301   0.09962
  26        3PY         0.00463  -0.57171   0.14645   0.15456   0.45544
  27        3PZ        -0.36490   0.09277   0.52541   0.07448  -0.28976
  28        4S          0.21544  -0.24486  -0.43330   0.23951  -1.33516
  29        4PX        -0.27946  -0.24714   0.08427   0.24635   0.45215
  30        4PY        -0.06825   0.68990  -0.12703  -0.14647  -0.87091
  31        4PZ         0.41928  -0.09627  -0.61611  -0.16261   0.64929
  32        5D 0        0.00172   0.00036  -0.00039  -0.00541   0.01198
  33        5D+1        0.02977  -0.00793  -0.03434   0.00154  -0.00200
  34        5D-1        0.01177  -0.00056  -0.00351  -0.00324   0.00241
  35        5D+2       -0.00278  -0.01827   0.00068  -0.00899  -0.00715
  36        5D-2        0.00149   0.03981  -0.00759   0.00191  -0.00593
  37 3   N  1S         -0.00482   0.00947  -0.00916  -0.00728   0.00614
  38        2S         -0.00882   0.01748  -0.01557  -0.01456   0.01277
  39        2PX        -0.00828  -0.02531  -0.00991   0.04904   0.02024
  40        2PY         0.01379  -0.06076   0.02313  -0.21369   0.01266
  41        2PZ        -0.17517  -0.01694  -0.14836  -0.00332   0.00515
  42        3S          0.01999  -0.11791   0.01525   0.13157  -0.14288
  43        3PX        -0.01409  -0.04213  -0.04790   0.14445   0.01293
  44        3PY         0.01686  -0.20001   0.06735  -0.63671   0.03657
  45        3PZ        -0.60754  -0.04905  -0.51697  -0.02508   0.04696
  46        4S          0.34106   0.33767   0.98944  -0.20981   0.96393
  47        4PX        -0.07653   0.09320   0.31228  -0.28226   0.40001
  48        4PY         0.01175  -0.06507  -0.34362   1.90623  -1.23910
  49        4PZ         0.83771   0.14157   1.09876  -0.07328   0.17164
  50        5D 0       -0.02061  -0.01443  -0.00766   0.00005   0.00624
  51        5D+1       -0.03280  -0.00320  -0.03000  -0.00260  -0.00477
  52        5D-1        0.00069   0.00939  -0.00131   0.01345   0.00894
  53        5D+2        0.00514   0.00276   0.00678  -0.02008  -0.01048
  54        5D-2       -0.00299  -0.01985   0.01014  -0.05239   0.04469
  55 4   H  1S          0.01639  -0.01768   0.01154  -0.02247   0.04065
  56        2S         -0.06257  -0.28307  -0.33142   0.45524  -0.51975
  57        3S         -0.19191   0.45067  -0.11601   0.69549   0.06922
  58        4PX        -0.03808  -0.04480  -0.07544   0.07913  -0.15150
  59        4PY        -0.02884   0.00753  -0.01515   0.10321  -0.03233
  60        4PZ         0.01012  -0.02080   0.02884  -0.02902  -0.02345
  61 5   H  1S          0.00112   0.02307  -0.00831   0.02853  -0.00815
  62        2S         -0.15422   0.27606  -0.21484  -0.30387   0.46871
  63        3S         -0.07341  -0.51939   0.15812  -0.91103   0.02762
  64        4PX        -0.01441   0.00907  -0.03305  -0.05545   0.08902
  65        4PY         0.02317   0.01642   0.00118   0.10949  -0.01481
  66        4PZ        -0.00323   0.02769   0.02913   0.01200   0.06411
                          26        27        28        29        30
                           V         V         V         V         V
     Eigenvalues --     0.70353   0.73460   0.76484   0.81734   0.95519
   1 1   N  1S          0.04090  -0.01834   0.04141  -0.03312  -0.00725
   2        2S          0.07822  -0.03706   0.08385  -0.06496  -0.01894
   3        2PX        -0.11649   0.11034   0.15769   0.03114  -0.22197
   4        2PY         0.03969   0.08363   0.01957   0.04234   0.01814
   5        2PZ         0.08751   0.13212  -0.03753  -0.04047  -0.02257
   6        3S         -0.47090   0.25651  -0.70703   0.42940   0.27320
   7        3PX        -0.47204   0.25896   0.35900  -0.34608  -0.43419
   8        3PY         0.15280   0.31764   0.06889   0.14443   0.11861
   9        3PZ         0.29212   0.45861  -0.13765  -0.17630  -0.07084
  10        4S          0.27097  -0.18273   1.63237  -0.10255  -0.67117
  11        4PX         1.46785  -0.07365   0.12105   4.52052   5.26237
  12        4PY        -0.36217  -0.97175   0.24206  -0.01979  -0.42087
  13        4PZ        -0.70640  -1.17200   0.27433   0.70243   0.33497
  14        5D 0       -0.00285  -0.01109   0.02321  -0.00575  -0.00242
  15        5D+1       -0.00350  -0.01279   0.00881   0.02078   0.00325
  16        5D-1        0.00748  -0.00365   0.01061   0.00251   0.01225
  17        5D+2        0.00014  -0.00057  -0.00771  -0.00810   0.00310
  18        5D-2       -0.03292  -0.01967  -0.04552  -0.09216   0.03466
  19 2   N  1S          0.04603  -0.02285   0.02608   0.00625  -0.05539
  20        2S          0.09138  -0.04681   0.05041   0.00762  -0.10843
  21        2PX        -0.12551   0.14294   0.10901   0.13636  -0.11605
  22        2PY        -0.10117   0.01263   0.00912   0.04199  -0.00706
  23        2PZ        -0.07807  -0.08911   0.03385   0.02317  -0.00059
  24        3S         -0.70724   0.39985  -0.30085  -0.00493   0.77863
  25        3PX        -0.29301   0.38438   0.39418   0.43990  -0.13617
  26        3PY        -0.32009  -0.01746   0.01430   0.05700  -0.00468
  27        3PZ        -0.26570  -0.31752   0.11303   0.09382   0.00745
  28        4S         -0.06951  -0.32586  -0.47436  -3.32993  -4.39948
  29        4PX         0.22514  -0.34611  -0.08394   0.63648   1.61845
  30        4PY         0.69047   0.42314   0.12100   0.73778   0.95012
  31        4PZ         0.61545   0.85761  -0.24329  -0.31341  -0.03204
  32        5D 0        0.01651  -0.02290   0.01648  -0.01726   0.01184
  33        5D+1       -0.00344   0.00425  -0.00188  -0.00917  -0.00465
  34        5D-1        0.00293   0.00439   0.00256  -0.00456  -0.00153
  35        5D+2       -0.03490   0.01827  -0.02018  -0.00291  -0.06072
  36        5D-2       -0.00941   0.02591   0.00902   0.05381  -0.00000
  37 3   N  1S          0.00080  -0.00656   0.04440  -0.04807   0.07618
  38        2S          0.00088  -0.01146   0.08811  -0.09383   0.14968
  39        2PX         0.03133   0.03718   0.19828   0.02013  -0.06605
  40        2PY         0.05804  -0.09468  -0.01337  -0.00134  -0.01299
  41        2PZ        -0.02294  -0.03264  -0.02057   0.04125  -0.00781
  42        3S          0.00731   0.01368  -0.75400   0.68157  -1.31675
  43        3PX         0.10125   0.10099   0.43380   0.22820  -0.15377
  44        3PY         0.18198  -0.26507   0.03841   0.04561  -0.08199
  45        3PZ        -0.06714  -0.12150   0.02515   0.11940   0.14245
  46        4S          0.91355   0.40981   1.64357   1.56017   6.26031
  47        4PX         0.11899  -0.06302  -1.28222   1.47209   2.11589
  48        4PY        -0.57497   1.23448  -0.55189  -1.18517  -0.49582
  49        4PZ         0.36783   0.57926   0.24114  -0.40830   0.23609
  50        5D 0       -0.01610   0.00383   0.02155  -0.03896  -0.02249
  51        5D+1       -0.01003  -0.01074  -0.02599   0.01209  -0.02912
  52        5D-1        0.00614   0.00198   0.01913   0.02691   0.01343
  53        5D+2        0.00396  -0.00390  -0.07551   0.06929   0.02094
  54        5D-2        0.01551  -0.00799   0.07559   0.05921   0.01358
  55 4   H  1S          0.01911   0.00189   0.03749   0.04316   0.05929
  56        2S         -0.11471   0.14673  -0.72240  -0.06587  -0.71010
  57        3S         -0.29712   0.21270  -0.69177   0.23160  -0.07488
  58        4PX        -0.07186   0.02378  -0.07088  -0.11388  -0.23079
  59        4PY        -0.03167   0.05080  -0.17076   0.06022  -0.09006
  60        4PZ        -0.00334   0.02480   0.05582  -0.13987   0.10218
  61 5   H  1S          0.02187   0.00120   0.01780   0.00132   0.02068
  62        2S          0.09594  -0.57609  -0.05687   0.69512  -0.54161
  63        3S          0.11710  -0.27995  -0.46061   0.40928  -0.13255
  64        4PX        -0.04509  -0.08662   0.00461   0.03861   0.00340
  65        4PY        -0.02649   0.06617   0.11457  -0.08378   0.17510
  66        4PZ         0.01000   0.02004   0.11349   0.00039   0.17251
                          31        32        33        34        35
                           V         V         V         V         V
     Eigenvalues --     1.13040   1.28047   1.36015   1.50632   1.63794
   1 1   N  1S          0.07988  -0.02459  -0.01606   0.00149   0.00601
   2        2S          0.15782  -0.04860  -0.03239   0.00232   0.01055
   3        2PX        -0.09005   0.01566   0.06605  -0.01862   0.02603
   4        2PY        -0.04967   0.02749   0.01875  -0.02102  -0.04263
   5        2PZ        -0.00286  -0.00615   0.00706   0.00499  -0.00628
   6        3S         -1.39465   0.46107   0.35845  -0.00523  -0.02654
   7        3PX         0.03621   0.05409   0.23934  -0.03523   0.13501
   8        3PY        -0.01396   0.08114   0.08658  -0.02886  -0.01266
   9        3PZ        -0.00335   0.07511  -0.05827   0.00978   0.00936
  10        4S          6.46459  -2.22038  -2.71777   0.32304  -1.06794
  11        4PX         0.63222  -2.18013  -4.70725   0.35997  -1.69228
  12        4PY         0.88970  -0.77542  -1.03145  -0.15179  -0.13482
  13        4PZ         0.02004  -0.51412   0.16124  -0.00135   0.16937
  14        5D 0       -0.10269  -0.06965  -0.02911  -0.09309  -0.00670
  15        5D+1        0.02011  -0.20033   0.23711  -0.00308  -0.33451
  16        5D-1        0.01549   0.09209  -0.03490  -0.07502  -0.16151
  17        5D+2        0.12786  -0.09621  -0.11067  -0.01045   0.01079
  18        5D-2        0.04860  -0.03686  -0.03040  -0.02583  -0.22788
  19 2   N  1S         -0.06590   0.01819   0.02236  -0.00902   0.00183
  20        2S         -0.12816   0.03663   0.04584  -0.01770   0.00308
  21        2PX        -0.11249   0.00478  -0.00136  -0.01800  -0.03097
  22        2PY        -0.04753   0.00354  -0.01113   0.01773   0.02420
  23        2PZ        -0.00198   0.03484  -0.03478  -0.00045   0.05610
  24        3S          1.08395  -0.35226  -0.45419   0.15672  -0.07362
  25        3PX         0.02382  -0.10475  -0.16704  -0.01963  -0.12710
  26        3PY        -0.02436  -0.03485  -0.05966   0.02943   0.01531
  27        3PZ         0.00315   0.03950  -0.05357  -0.00025   0.07848
  28        4S         -4.27533   3.05650   5.24879  -0.56918   1.79481
  29        4PX         2.08253  -1.26805  -2.04869   0.26819  -0.65174
  30        4PY         0.40879  -0.27097  -0.61129   0.07610  -0.29598
  31        4PZ         0.04567   0.12734  -0.17524   0.02499  -0.10971
  32        5D 0        0.08151  -0.04258  -0.05549  -0.05478   0.00154
  33        5D+1       -0.01035   0.09861  -0.11151   0.02531   0.26134
  34        5D-1       -0.00110   0.06791  -0.06614  -0.02441   0.01662
  35        5D+2       -0.08832   0.01039   0.04572  -0.04241  -0.07585
  36        5D-2       -0.08089   0.01903  -0.01108   0.01725   0.09782
  37 3   N  1S         -0.02666   0.01445  -0.00468   0.00488  -0.01613
  38        2S         -0.05387   0.03047  -0.00979   0.00961  -0.03188
  39        2PX         0.01228  -0.03297   0.00178  -0.00911  -0.02155
  40        2PY        -0.01919  -0.01037  -0.01693  -0.00264   0.02392
  41        2PZ         0.01380  -0.02203   0.02528  -0.00012  -0.01578
  42        3S          0.62112  -0.29677   0.15264  -0.06673   0.22902
  43        3PX         0.00611   0.00608  -0.02298  -0.04153  -0.15646
  44        3PY        -0.02585  -0.06135  -0.06318  -0.16452   0.18405
  45        3PZ        -0.05573  -0.06436   0.00153   0.00816   0.05101
  46        4S         -2.83676   0.06666  -2.79574   0.22502  -1.37755
  47        4PX        -1.06040  -0.70910  -0.71645   0.20603   0.34677
  48        4PY         0.11206   0.86949   1.34327   1.06899  -0.05124
  49        4PZ        -0.14925   0.63227  -0.48872  -0.03212  -0.44736
  50        5D 0       -0.02369  -0.13150   0.02473  -0.02520   0.16918
  51        5D+1        0.01612   0.25787  -0.20506  -0.00835   0.16954
  52        5D-1        0.05177   0.07234   0.17839   0.05344  -0.08378
  53        5D+2       -0.00099  -0.06492   0.09005   0.00153   0.25895
  54        5D-2        0.09343   0.10103   0.09110  -0.06987   0.17292
  55 4   H  1S         -0.00172  -0.01833  -0.02437  -0.07426  -0.09703
  56        2S          0.45789  -0.17951   0.77278   0.61760   0.49230
  57        3S         -0.04000  -0.01958  -0.02761  -0.00199   0.02582
  58        4PX        -0.11462  -0.01379  -0.34800   0.32799  -0.21710
  59        4PY         0.09844  -0.22370   0.25480  -0.54579   0.15986
  60        4PZ        -0.28213  -0.55805  -0.15898  -0.36096  -0.01937
  61 5   H  1S         -0.06693  -0.02921  -0.04131   0.06238  -0.43293
  62        2S          0.47727  -0.71676  -0.10681  -0.62426   1.06418
  63        3S         -0.03474  -0.11831  -0.11415   0.00513  -0.30827
  64        4PX         0.16650   0.41736   0.18939  -0.44488  -0.41106
  65        4PY        -0.05236   0.18723  -0.14735  -0.47848   0.15537
  66        4PZ        -0.00445  -0.07421   0.54871   0.41313   0.21203
                          36        37        38        39        40
                           V         V         V         V         V
     Eigenvalues --     1.66269   1.69836   1.73912   1.76570   1.88534
   1 1   N  1S         -0.00088  -0.00487   0.00116   0.00450   0.00983
   2        2S         -0.00017  -0.00874   0.00268   0.00798   0.02083
   3        2PX        -0.00719  -0.06784  -0.03239   0.06035  -0.01104
   4        2PY         0.03526  -0.04725  -0.06068  -0.00439   0.02791
   5        2PZ         0.01246   0.03810  -0.03419   0.00922  -0.03614
   6        3S         -0.10935   0.01197  -0.08432  -0.02579  -0.21857
   7        3PX        -0.13671  -0.11697  -0.07800   0.01608   0.03893
   8        3PY         0.02585  -0.04029  -0.04694  -0.04824  -0.00400
   9        3PZ         0.01688   0.03751  -0.03414   0.00389   0.00596
  10        4S          1.95213   0.99393   1.18864  -0.47609   1.17346
  11        4PX         0.06079   0.32168  -0.08285   1.87677  -0.52580
  12        4PY         0.10633   0.36989   0.30742   0.04252   0.29700
  13        4PZ         0.15143  -0.11828   0.08190   0.15497  -0.27497
  14        5D 0        0.07192  -0.17114  -0.33527  -0.41846  -0.07419
  15        5D+1       -0.23669   0.07416  -0.00535  -0.08780   0.25593
  16        5D-1       -0.13272  -0.45837   0.44714  -0.15602  -0.07287
  17        5D+2        0.07830  -0.17524  -0.24048  -0.24788   0.02853
  18        5D-2        0.23886  -0.05085  -0.08087   0.16939  -0.18398
  19 2   N  1S         -0.00011  -0.00672  -0.00577   0.00315  -0.00070
  20        2S          0.00019  -0.01481  -0.01264   0.00711  -0.00175
  21        2PX         0.03107  -0.00554   0.00083   0.03188  -0.00488
  22        2PY        -0.04141  -0.01673  -0.02490  -0.02386   0.03058
  23        2PZ         0.03801   0.00506  -0.02200   0.02952  -0.04666
  24        3S          0.04402   0.12102   0.11083  -0.02948   0.02816
  25        3PX         0.09863  -0.03649  -0.02125   0.12162   0.00242
  26        3PY        -0.03890  -0.03431  -0.03719  -0.01065   0.03704
  27        3PZ         0.05591   0.00568  -0.02495   0.03813  -0.05940
  28        4S         -0.82348  -0.71098  -0.48678  -1.30969  -0.08813
  29        4PX         0.33854   0.33035   0.25906   0.41092   0.11146
  30        4PY         0.15211   0.05903   0.02744   0.22556  -0.11752
  31        4PZ        -0.04129   0.05576  -0.00206  -0.04869   0.15622
  32        5D 0        0.10812  -0.07891  -0.24623  -0.39443  -0.12747
  33        5D+1        0.20880   0.14082  -0.20755   0.18521  -0.16990
  34        5D-1       -0.01571  -0.29634   0.31390  -0.09990  -0.42258
  35        5D+2        0.12865  -0.05947  -0.08041  -0.06347  -0.17682
  36        5D-2       -0.12226  -0.08051  -0.19686  -0.28976   0.15197
  37 3   N  1S         -0.03424   0.00803  -0.01963   0.00644  -0.01166
  38        2S         -0.07255   0.01510  -0.04202   0.01691  -0.01870
  39        2PX        -0.01625  -0.01803  -0.03006   0.06725  -0.11278
  40        2PY        -0.01887   0.05814   0.02948  -0.05392  -0.05615
  41        2PZ        -0.06084  -0.02358  -0.02916   0.01379   0.07480
  42        3S          0.69402  -0.04178   0.39964  -0.26378   0.10958
  43        3PX         0.04480   0.12042  -0.02246   0.05078  -0.07403
  44        3PY        -0.09100   0.22856   0.04102   0.00986  -0.02206
  45        3PZ         0.00538  -0.07946   0.01505   0.01689  -0.01515
  46        4S         -1.69653  -0.08558  -1.03034   1.80942  -0.98840
  47        4PX        -0.83027  -0.74097  -0.54711   1.14072  -0.66271
  48        4PY         0.44747  -0.42742  -0.11558  -0.51584  -0.02165
  49        4PZ        -0.57836   0.11406  -0.34139   0.08863   0.08608
  50        5D 0        0.18705  -0.11741   0.05229  -0.04093   0.06947
  51        5D+1        0.17545  -0.10982   0.12544   0.00500   0.18049
  52        5D-1        0.05193  -0.16390  -0.01763   0.09844   0.15582
  53        5D+2       -0.07445  -0.08164   0.01947  -0.03868   0.19166
  54        5D-2       -0.17514   0.21211   0.15336  -0.18624  -0.03989
  55 4   H  1S         -0.24847   0.38880   0.12130  -0.32609  -0.69874
  56        2S          0.90853  -0.86001  -0.08160   0.31202   0.92483
  57        3S         -0.24949   0.25766   0.10841  -0.23130  -0.47078
  58        4PX         0.10838   0.53214   0.29176  -0.37995   0.18666
  59        4PY        -0.10240   0.14295  -0.05378   0.17769  -0.25739
  60        4PZ         0.36970   0.01088   0.32404   0.00601   0.16277
  61 5   H  1S          0.13602  -0.06416  -0.23674   0.23638  -0.31685
  62        2S         -0.05451   0.14008   0.58491  -0.27463   0.48641
  63        3S          0.08808  -0.12105  -0.23520   0.29937  -0.13359
  64        4PX         0.46427   0.20653   0.04018  -0.20987   0.27448
  65        4PY        -0.02112   0.13927   0.09646  -0.06348   0.18435
  66        4PZ         0.51598   0.16636   0.26814  -0.25866  -0.14998
                          41        42        43        44        45
                           V         V         V         V         V
     Eigenvalues --     1.95022   2.08990   2.12399   2.25732   2.33450
   1 1   N  1S         -0.00846   0.00308   0.00259   0.01512   0.01171
   2        2S         -0.01843   0.00702   0.00425   0.03540   0.02815
   3        2PX         0.02190  -0.00847  -0.00917   0.07925   0.02729
   4        2PY        -0.05662   0.02216  -0.05594   0.09089   0.05380
   5        2PZ        -0.04247   0.04846   0.00749  -0.07554   0.09453
   6        3S          0.22046  -0.06171   0.01175  -0.32348  -0.26971
   7        3PX        -0.12247  -0.03156   0.02153  -0.01357   0.02074
   8        3PY        -0.02689  -0.03058  -0.02947  -0.08084  -0.04376
   9        3PZ        -0.01178   0.02069   0.00162   0.00023  -0.01692
  10        4S         -0.77886   0.58439  -0.25682   0.23669   0.43059
  11        4PX         2.40670   0.95220   0.43743   0.58980   0.85279
  12        4PY        -0.26313   0.16778   0.01076   0.23735   0.43802
  13        4PZ        -0.09985   0.02126   0.10938  -0.02297   0.35344
  14        5D 0        0.06332  -0.03541  -0.40315  -0.32521  -0.18363
  15        5D+1        0.11711   0.10573  -0.02324  -0.07310   0.02939
  16        5D-1        0.03495  -0.43218   0.03017   0.11481   0.13666
  17        5D+2       -0.14612  -0.01404  -0.31717   0.23321   0.14460
  18        5D-2        0.37319   0.07583  -0.13139   0.18910   0.14440
  19 2   N  1S          0.00237   0.00102  -0.00413   0.01317   0.01235
  20        2S          0.00437   0.00220  -0.00940   0.03314   0.02892
  21        2PX         0.04357   0.01749  -0.00463  -0.01260   0.00556
  22        2PY        -0.05837   0.00472   0.00932   0.01425  -0.00851
  23        2PZ        -0.02434  -0.00468   0.00535  -0.00742   0.01380
  24        3S         -0.02897   0.00228   0.07124  -0.26158  -0.23220
  25        3PX         0.07519   0.05877  -0.05007   0.26876   0.21789
  26        3PY        -0.07270   0.00667  -0.02120   0.08610   0.05291
  27        3PZ        -0.02998   0.00753   0.00480   0.00245   0.02084
  28        4S         -1.43473  -0.96147  -0.29995  -0.39614  -0.67466
  29        4PX         0.38754   0.35507   0.13238   0.01665   0.15345
  30        4PY         0.48041   0.12625   0.05158  -0.09935  -0.00315
  31        4PZ         0.10622   0.00986  -0.03867   0.06763  -0.18710
  32        5D 0        0.18848   0.02416   0.65546  -0.03009  -0.06742
  33        5D+1       -0.15242  -0.10544   0.04654  -0.19249   0.35357
  34        5D-1       -0.22837   0.68777  -0.02154  -0.13559   0.03013
  35        5D+2        0.34701   0.01962   0.34666   0.13909   0.05318
  36        5D-2       -0.31493   0.01305   0.12345   0.31037   0.15512
  37 3   N  1S         -0.00938   0.00761   0.00798   0.01512   0.01251
  38        2S         -0.01222   0.02503   0.01872   0.03206   0.03167
  39        2PX         0.03440  -0.04884  -0.00549   0.03342  -0.00009
  40        2PY         0.11280   0.00131  -0.09664   0.09284   0.10817
  41        2PZ         0.07620   0.09058  -0.01068  -0.05116   0.02587
  42        3S         -0.13967  -0.28941  -0.18403  -0.24785  -0.27478
  43        3PX         0.14622   0.18897   0.04997  -0.06743  -0.01170
  44        3PY        -0.03716   0.25551   0.03064   0.52625  -0.76544
  45        3PZ         0.01468  -0.11639  -0.03507  -0.04931  -0.03867
  46        4S          2.29976   0.29946   0.37168   0.32261   0.18223
  47        4PX         1.05832   0.09225   0.37745   0.39798   0.22849
  48        4PY        -0.18899  -0.11697  -0.17942   0.01654  -1.00549
  49        4PZ         0.36201   0.02167  -0.13447  -0.14458  -0.27975
  50        5D 0        0.21281   0.00943  -0.19684  -0.34411  -0.26915
  51        5D+1        0.07050  -0.21379   0.05883   0.22133  -0.22221
  52        5D-1       -0.21606  -0.04187   0.26873  -0.35556  -0.11667
  53        5D+2        0.04318   0.13267   0.07016   0.01816   0.21923
  54        5D-2       -0.01782  -0.14718   0.17230  -0.43915   0.04780
  55 4   H  1S         -0.05094  -0.66272  -0.26397  -0.16467   0.32208
  56        2S         -0.14203   1.11847   0.40939   0.72669  -1.12534
  57        3S          0.14017  -0.34199  -0.16537  -0.05878   0.26605
  58        4PX        -0.09920   0.30822   0.11024   0.12614  -0.20093
[...]
     2   7     0.15  -0.24  -0.01     0.00   0.01  -0.16    -0.05   0.03   0.00
     3   7    -0.04  -0.13   0.04     0.02   0.04  -0.08     0.12   0.00   0.14
     4   1     0.13  -0.36  -0.20    -0.15  -0.21  -0.82    -0.28  -0.07  -0.59
     5   1    -0.64  -0.23  -0.29    -0.12  -0.17   0.33    -0.15   0.17  -0.69
                     4                      5                      6
                     A                      A                      A
 Frequencies --  1014.1784              1248.1784              1617.3006
 Red. masses --     3.6237                 1.3319                 1.0864
 Frc consts  --     2.1960                 1.2226                 1.6743
 IR Inten    --    27.2185                17.1711                26.8018
  Atom  AN      X      Y      Z        X      Y      Z        X      Y      Z
     1   7     0.18  -0.13  -0.02     0.00   0.04  -0.00    -0.01  -0.01  -0.01
     2   7     0.19   0.04   0.01     0.09   0.02   0.00     0.02   0.01   0.00
     3   7    -0.31   0.11   0.05    -0.09  -0.08   0.01     0.07  -0.01  -0.02
     4   1    -0.09  -0.13  -0.18    -0.67   0.18  -0.19    -0.57   0.47   0.18
     5   1    -0.77   0.04  -0.39     0.65   0.17   0.04    -0.53  -0.29   0.21
                     7                      8                      9
                     A                      A                      A
 Frequencies --  1970.6571              3287.3275              3601.9914
 Red. masses --    10.1027                 1.0580                 1.0838
 Frc consts  --    23.1159                 6.7361                 8.2847
 IR Inten    --   105.4886                55.3562                56.8464
  Atom  AN      X      Y      Z        X      Y      Z        X      Y      Z
     1   7     0.61   0.19   0.01    -0.00   0.00  -0.00     0.00   0.00  -0.00
     2   7    -0.51  -0.16  -0.01    -0.00  -0.00   0.00    -0.00  -0.00  -0.00
     3   7    -0.06  -0.04   0.02    -0.03   0.05   0.02     0.03   0.07  -0.02
     4   1    -0.49   0.20  -0.13     0.09   0.17  -0.05    -0.48  -0.77   0.36
     5   1     0.01   0.05  -0.03     0.32  -0.88  -0.28     0.06  -0.15  -0.06

 -------------------
 - Thermochemistry -
 -------------------
 Temperature   298.150 Kelvin.  Pressure   1.00000 Atm.
 Atom     1 has atomic number  7 and mass  14.00307
 Atom     2 has atomic number  7 and mass  14.00307
 Atom     3 has atomic number  7 and mass  14.00307
 Atom     4 has atomic number  1 and mass   1.00783
 Atom     5 has atomic number  1 and mass   1.00783
 Molecular mass:    44.02487 amu.
 Principal axes and moments of inertia in atomic units:
                           1         2         3
     Eigenvalues --     8.82130 166.86779 174.03373
           X            0.99981  -0.00581  -0.01838
           Y            0.00591   0.99997   0.00560
           Z            0.01835  -0.00571   0.99982
 This molecule is an asymmetric top.
 Rotational symmetry number  1.
 Rotational temperatures (Kelvin)      9.81871     0.51906     0.49768
 Rotational constants (GHZ):         204.58901    10.81540    10.37007
 Zero-point vibrational energy      83849.8 (Joules/Mol)
                                   20.04058 (Kcal/Mol)
 Warning -- explicit consideration of   3 degrees of freedom as
           vibrations may cause significant error
 Vibrational temperatures:    359.64   606.94   873.55  1459.17  1795.85
          (Kelvin)           2326.93  2835.33  4729.73  5182.46
 
 Zero-point correction=                           0.031937 (Hartree/Particle)
 Thermal correction to Energy=                    0.035753
 Thermal correction to Enthalpy=                  0.036697
 Thermal correction to Gibbs Free Energy=         0.007233
 Sum of electronic and zero-point Energies=           -165.247843
 Sum of electronic and thermal Energies=              -165.244026
 Sum of electronic and thermal Enthalpies=            -165.243082
 Sum of electronic and thermal Free Energies=         -165.272546
 
                     E (Thermal)             CV                S
                      KCal/Mol        Cal/Mol-Kelvin    Cal/Mol-Kelvin
 Total                   22.435             10.764             62.012
 Electronic               0.000              0.000              1.377
 Translational            0.889              2.981             37.273
 Rotational               0.889              2.981             20.177
 Vibrational             20.658              4.802              3.185
 Vibration     1          0.663              1.763              1.731
 Vibration     2          0.784              1.423              0.886
 Vibration     3          0.966              1.017              0.438
                       Q            Log10(Q)             Ln(Q)
 Total Bot       0.470912D-03         -3.327061         -7.660840
 Total V=0       0.230551D+12         11.362767         26.163737
 Vib (Bot)       0.357925D-14        -14.446209        -33.263624
 Vib (Bot)    1  0.780813D+00         -0.107453         -0.247420
 Vib (Bot)    2  0.415657D+00         -0.381265         -0.877894
 Vib (Bot)    3  0.244127D+00         -0.612385         -1.410068
 Vib (V=0)       0.175234D+01          0.243619          0.560953
 Vib (V=0)    1  0.142718D+01          0.154480          0.355703
 Vib (V=0)    2  0.115021D+01          0.060777          0.139943
 Vib (V=0)    3  0.105642D+01          0.023835          0.054881
 Electronic      0.200000D+01          0.301030          0.693147
 Translational   0.114816D+08          7.060002         16.256256
 Rotational      0.572949D+04          3.758116          8.653381
 
                                                  reverse IRC, from TS reverse1 f
 req
                                                             IR Spectrum
 
     3           3                                             1           1            1        1                                   
     6           2                                             9           6            2        0             6      4     2        
     0           8                                             7           1            4        1             0      2     5        
     2           7                                             1           7            8        4             7      2     0        
 
     X           X                                             X           X            X        X             X      X     X        
     X           X                                             X           X            X        X             X            X        
     X           X                                             X           X                     X             X            X        
     X           X                                             X                                               X                     
     X           X                                             X                                               X                     
                                                               X                                               X                     
                                                               X                                               X                     
                                                               X                                               X                     
                                                               X                                               X                     
                                                               X                                               X                     
                                                                                                               X                     
                                                                                                               X                     
                                                                                                               X                     
                                                                                                               X                     
                                                                                                               X                     
                                                                                                               X                     
                                                                                                               X                     
                                                                                                               X                     
                                                                                                               X                     
                                                                                                               X                     
 
 ***** Axes restored to original set *****
 -------------------------------------------------------------------
 Center     Atomic                   Forces (Hartrees/Bohr)
 Number     Number              X              Y              Z
 -------------------------------------------------------------------
      1        7          -0.052379623   -0.034123630    0.001824992
      2        7           0.029194462    0.018584202    0.000675888
      3        7           0.017078253    0.014726630   -0.004035315
      4        1           0.003600654   -0.000812411   -0.002599921
      5        1           0.002506254    0.001625209    0.004134356
 -------------------------------------------------------------------
 Cartesian Forces:  Max     0.052379623 RMS     0.019460640
 Z-matrix is all fixed cartesians, so copy forces.
 Force constants in Cartesian coordinates: 
                1             2             3             4             5 
      1  0.579590D-01
      2  0.538030D-01  0.433994D-01
      3 -0.133150D-01  0.106460D+00  0.119345D+01
      4 -0.403977D-02 -0.117763D-01 -0.349394D-01  0.884973D-02
      5 -0.121544D-01 -0.200493D-01 -0.129492D+00  0.694955D-02  0.187009D-01
      6 -0.461215D-01 -0.136480D+00 -0.891376D+00  0.362977D-02  0.119441D+00
      7 -0.505896D-01 -0.292449D-01  0.447825D-02 -0.681996D-02 -0.116334D-02
      8 -0.406049D-01 -0.206287D-01  0.336166D-01 -0.599386D-03 -0.442862D-02
      9  0.390555D-01 -0.243415D-02 -0.240473D+00  0.366793D-01  0.117888D-01
     10  0.100594D-01  0.588813D-02  0.304596D-01  0.492180D-03 -0.154328D-02
     11  0.131594D-01 -0.126567D-01 -0.262703D-02 -0.415088D-02  0.832290D-02
     12 -0.989047D-02  0.109197D-02 -0.633114D-01 -0.143247D-02  0.814440D-03
     13 -0.133889D-01 -0.186699D-01  0.133165D-01  0.151782D-02  0.791143D-02
     14 -0.142032D-01  0.993540D-02 -0.795742D-02  0.957706D-02 -0.254580D-02
     15  0.302716D-01  0.313618D-01  0.170661D-02 -0.393721D-02 -0.255150D-02
                6             7             8             9            10 
      6  0.969529D+00
      7  0.295311D-01  0.460520D+00
      8 -0.468232D-02  0.257051D+00  0.290102D+00
      9 -0.785860D-01  0.142890D+00 -0.423944D-01  0.588509D+00
     10  0.393069D-02 -0.269023D+00 -0.650795D-01 -0.217814D+00  0.269072D+00
     11  0.401084D-02 -0.448891D-01 -0.243373D-01  0.125383D-02  0.545326D-01
     12  0.721511D-02 -0.188826D+00 -0.216941D-01 -0.199761D+00  0.194654D+00
     13  0.903001D-02 -0.134087D+00 -0.150768D+00 -0.810313D-03 -0.106000D-01
     14  0.177107D-01 -0.181754D+00 -0.240708D+00  0.317860D-01  0.620200D-02
     15 -0.678263D-02  0.119263D-01  0.351543D-01 -0.696886D-01 -0.112295D-01
               11            12            13            14            15 
     11  0.325448D-01
     12  0.185122D-01  0.248411D+00
     13 -0.186521D-01  0.549501D-02  0.156558D+00
     14 -0.387373D-02  0.127553D-02  0.180178D+00  0.237192D+00
     15 -0.211498D-01  0.744613D-02 -0.270312D-01 -0.428147D-01  0.673185D-01
 Leave Link  716 at Fri Apr 25 17:10:11 2014, MaxMem=   65536000 cpu:       0.2
 (Enter /apps/gaussian/g09/l103.exe)

 GradGradGradGradGradGradGradGradGradGradGradGradGradGradGradGradGradGrad
 Berny optimization.
 Search for a local minimum.
 Step number   1 out of a maximum of    2
 All quantities printed in internal units (Hartrees-Bohrs-Radians)
 Second derivative matrix not updated -- analytic derivatives used.
 The second derivative matrix:
                          X1        Y1        Z1        X2        Y2
           X1           0.05796
           Y1           0.05380   0.04340
           Z1          -0.01332   0.10646   1.19345
           X2          -0.00404  -0.01178  -0.03494   0.00885
           Y2          -0.01215  -0.02005  -0.12949   0.00695   0.01870
           Z2          -0.04612  -0.13648  -0.89138   0.00363   0.11944
           X3          -0.05059  -0.02924   0.00448  -0.00682  -0.00116
           Y3          -0.04060  -0.02063   0.03362  -0.00060  -0.00443
           Z3           0.03906  -0.00243  -0.24047   0.03668   0.01179
           X4           0.01006   0.00589   0.03046   0.00049  -0.00154
           Y4           0.01316  -0.01266  -0.00263  -0.00415   0.00832
           Z4          -0.00989   0.00109  -0.06331  -0.00143   0.00081
           X5          -0.01339  -0.01867   0.01332   0.00152   0.00791
           Y5          -0.01420   0.00994  -0.00796   0.00958  -0.00255
           Z5           0.03027   0.03136   0.00171  -0.00394  -0.00255
                          Z2        X3        Y3        Z3        X4
           Z2           0.96953
           X3           0.02953   0.46052
           Y3          -0.00468   0.25705   0.29010
           Z3          -0.07859   0.14289  -0.04239   0.58851
           X4           0.00393  -0.26902  -0.06508  -0.21781   0.26907
           Y4           0.00401  -0.04489  -0.02434   0.00125   0.05453
           Z4           0.00722  -0.18883  -0.02169  -0.19976   0.19465
           X5           0.00903  -0.13409  -0.15077  -0.00081  -0.01060
           Y5           0.01771  -0.18175  -0.24071   0.03179   0.00620
           Z5          -0.00678   0.01193   0.03515  -0.06969  -0.01123
                          Y4        Z4        X5        Y5        Z5
           Y4           0.03254
           Z4           0.01851   0.24841
           X5          -0.01865   0.00550   0.15656
           Y5          -0.00387   0.00128   0.18018   0.23719
           Z5          -0.02115   0.00745  -0.02703  -0.04281   0.06732
     Eigenvalues ---    0.00708   0.01564   0.04525   0.12277   0.14613
     Eigenvalues ---    0.37175   0.73953   0.96182   2.02532
 Quadratic step=2.935D+00 exceeds max=3.000D-01 adjusted using Lamda=-1.714D-01.
 Angle between NR and scaled steps=  27.93 degrees.
 Angle between quadratic step and forces=  21.58 degrees.
 Linear search not attempted -- first point.
 TrRot= -0.003076 -0.001589 -0.005426  0.404904  0.008496 -0.412064
 Variable       Old X    -DE/DX   Delta X   Delta X   Delta X     New X
                                 (Linear)    (Quad)   (Total)
    X1       -0.34225  -0.05238   0.00000  -0.19379  -0.19806  -0.54031
    Y1       -0.22637  -0.03412   0.00000  -0.12157  -0.11876  -0.34514
    Z1        0.16406   0.00182   0.00000  -0.00243  -0.00251   0.16155
    X2       -0.37451   0.02919   0.00000   0.12380   0.13956  -0.23495
    Y2        0.01360   0.01858   0.00000   0.07594   0.08394   0.09754
    Z2        2.36111   0.00068   0.00000  -0.03209  -0.03595   2.32516
    X3        0.64188   0.01708   0.00000   0.04133   0.02279   0.66466
    Y3        0.10301   0.01473   0.00000   0.02539   0.01189   0.11490
    Z3       -2.10417  -0.00404   0.00000   0.01036  -0.00074  -2.10491
    X4       -0.75917   0.00360   0.00000   0.06493   0.03469  -0.72448
    Y4       -0.09696  -0.00081   0.00000   0.01221   0.00421  -0.09275
    Z4       -3.38840  -0.00260   0.00000  -0.01778  -0.01739  -3.40579
    X5        1.80187   0.00251   0.00000   0.01090   0.00103   1.80289
    Y5        1.62016   0.00163   0.00000   0.04133   0.01872   1.63888
    Z5       -2.46003   0.00413   0.00000   0.08169   0.05659  -2.40344
         Item               Value     Threshold  Converged?
 Maximum Force            0.052380     0.000450     NO 
 RMS     Force            0.019461     0.000300     NO 
 Maximum Displacement     0.198062     0.001800     NO 
 RMS     Displacement     0.076111     0.001200     NO 
 Predicted change in Energy=-1.823591D-02
 GradGradGradGradGradGradGradGradGradGradGradGradGradGradGradGradGradGrad

 Leave Link  103 at Fri Apr 25 17:10:12 2014, MaxMem=   65536000 cpu:       0.0
 (Enter /apps/gaussian/g09/l9999.exe)

 Test job not archived.
 1\1\GINC-ROMEO164\Freq\UM06\6-311G(d,p)\H2N3(2)\ROOT\25-Apr-2014\0\\#P
  M06 6-311G** FREQ # GFINPUT IOP(6/7=3) POP=FULL\\reverse IRC, from TS
  reverse1 freq\\0,2\N,-0.18111,-0.119792,0.086816\N,-0.198181,0.007197
 ,1.249448\N,0.339666,0.054508,-1.113477\H,-0.401733,-0.05131,-1.793065
 \H,0.953506,0.857351,-1.301794\\Version=AM64L-G09RevA.02\State=2-A\HF=
 -165.2797793\S2=0.753791\S2-1=0.\S2A=0.75001\RMSD=5.507e-09\RMSF=1.946
 e-02\ZeroPoint=0.0319367\Thermal=0.0357529\Dipole=0.1139397,0.4510185,
 -1.3525678\DipoleDeriv=-0.1340029,-0.1821689,-0.4509144,-0.0156004,-0.
 0931727,-0.2602956,-0.5214104,-0.1796837,1.0232472,-0.1561208,0.029940
 6,0.0316221,0.0127949,-0.1612446,0.0188367,0.4121313,0.2867458,-0.5699
 897,-0.0286751,0.3741232,0.3598086,0.3259878,-0.0583906,-0.1312341,0.0
 119375,-0.1792715,-0.7080815,0.179848,-0.0556443,-0.0199414,-0.0599974
 ,0.2680266,0.1549304,0.0526378,0.0463808,0.2492369,0.1389508,-0.166250
 6,0.0794251,-0.2631849,0.0447815,0.2177625,0.0447039,0.0258286,0.00558
 72\Polar=16.3159027,3.7118228,14.235153,-5.4106158,-2.4405896,37.30061
 73\PG=C01 [X(H2N3)]\NImag=0\\0.05795900,0.05380301,0.04339941,-0.01331
 501,0.10646016,1.19345390,-0.00403977,-0.01177635,-0.03493941,0.008849
 73,-0.01215436,-0.02004935,-0.12949229,0.00694955,0.01870087,-0.046121
 54,-0.13647978,-0.89137579,0.00362977,0.11944059,0.96952932,-0.0505896
 4,-0.02924486,0.00447825,-0.00681996,-0.00116334,0.02953107,0.46051995
 ,-0.04060486,-0.02062873,0.03361659,-0.00059939,-0.00442862,-0.0046823
 2,0.25705144,0.29010241,0.03905546,-0.00243415,-0.24047334,0.03667932,
 0.01178876,-0.07858601,0.14288995,-0.04239441,0.58850923,0.01005936,0.
 00588813,0.03045963,0.00049218,-0.00154328,0.00393069,-0.26902345,-0.0
 6507945,-0.21781441,0.26907194,0.01315941,-0.01265673,-0.00262703,-0.0
 0415088,0.00832290,0.00401084,-0.04488908,-0.02433725,0.00125383,0.054
 53261,0.03254481,-0.00989047,0.00109197,-0.06331139,-0.00143247,0.0008
 1444,0.00721511,-0.18882561,-0.02169412,-0.19976129,0.19465355,0.01851
 218,0.24841143,-0.01338895,-0.01866993,0.01331653,0.00151782,0.0079114
 3,0.00903001,-0.13408690,-0.15076775,-0.00081031,-0.01060004,-0.018652
 05,0.00549501,0.15655807,-0.01420320,0.00993540,-0.00795742,0.00957706
 ,-0.00254580,0.01771067,-0.18175416,-0.24070780,0.03178597,0.00620200,
 -0.00387373,0.00127553,0.18017830,0.23719193,0.03027155,0.03136181,0.0
 0170661,-0.00393721,-0.00255150,-0.00678263,0.01192634,0.03515426,-0.0
 6968859,-0.01122945,-0.02114982,0.00744613,-0.02703123,-0.04281475,0.0
 6731848\\0.05237962,0.03412363,-0.00182499,-0.02919446,-0.01858420,-0.
 00067589,-0.01707825,-0.01472663,0.00403532,-0.00360065,0.00081241,0.0
 0259992,-0.00250625,-0.00162521,-0.00413436\\\@


 IT TAKES GREATER CHARACTER TO CARRY OFF GOOD FORTUNE THAN BAD.
                     FRENCH PROVERB.
 Job cpu time:  0 days  0 hours  1 minutes 54.0 seconds.
 File lengths (MBytes):  RWF=      9 Int=      0 D2E=      0 Chk=      1 Scr=      1
 Normal termination of Gaussian 09 at Fri Apr 25 17:10:12 2014.
************
total 316
drwxrwxr-x 2 henon henon   4096 25 avril 17:10 .
drwxrwxr-x 3 henon henon   4096 25 avril 17:10 ..
-rw-r--r-- 1 henon henon    392 25 avril 17:10 8Rfreq.inp
-rw-rw-r-- 1 henon henon 310706 25 avril 17:10 8Rfreq.out
Run on 12 cores
romeo164
************
