 Entering Gaussian System, Link 0=g09
 Initial command:
 /apps/gaussian/g09/l1.exe /scratch_l/henon/1Rfreq_26976/Gau-26992.inp -scrdir=/scratch_l/henon/1Rfreq_26976/
 Entering Link 1 = /apps/gaussian/g09/l1.exe PID=     26993.
  
 Copyright (c) 1988,1990,1992,1993,1995,1998,2003,2009, Gaussian, Inc.
                  All Rights Reserved.
  
 This is part of the Gaussian(R) 09 program.  It is based on
 the Gaussian(R) 03 system (copyright 2003, Gaussian, Inc.),
 the Gaussian(R) 98 system (copyright 1998, Gaussian, Inc.),
 the Gaussian(R) 94 system (copyright 1995, Gaussian, Inc.),
 the Gaussian 92(TM) system (copyright 1992, Gaussian, Inc.),
 the Gaussian 90(TM) system (copyright 1990, Gaussian, Inc.),
 the Gaussian 88(TM) system (copyright 1988, Gaussian, Inc.),
 the Gaussian 86(TM) system (copyright 1986, Carnegie Mellon
 University), and the Gaussian 82(TM) system (copyright 1983,
 Carnegie Mellon University). Gaussian is a federally registered
 trademark of Gaussian, Inc.
  
 This software contains proprietary and confidential information,
 including trade secrets, belonging to Gaussian, Inc.
  
 This software is provided under written license and may be
 used, copied, transmitted, or stored only in accord with that
 written license.
  
 The following legend is applicable only to US Government
 contracts under FAR:
  
                    RESTRICTED RIGHTS LEGEND
  
 Use, reproduction and disclosure by the US Government is
 subject to restrictions as set forth in subparagraphs (a)
 and (c) of the Commercial Computer Software - Restricted
 Rights clause in FAR 52.227-19.
  
 Gaussian, Inc.
 340 Quinnipiac St., Bldg. 40, Wallingford CT 06492
  
  
 ---------------------------------------------------------------
 Warning -- This program may not be used in any manner that
 competes with the business of Gaussian, Inc. or will provide
 assistance to any competitor of Gaussian, Inc.  The licensee
 of this program is prohibited from giving any competitor of
 Gaussian, Inc. access to this program.  By using this program,
 the user acknowledges that Gaussian, Inc. is engaged in the
 business of creating and licensing software in the field of
 computational chemistry and represents and warrants to the
 licensee that it is not a competitor of Gaussian, Inc. and that
 it will not use this program in any manner prohibited above.
 ---------------------------------------------------------------
  

 Cite this work as:
 Gaussian 09, Revision A.02,
 M. J. Frisch, G. W. Trucks, H. B. Schlegel, G. E. Scuseria, 
 M. A. Robb, J. R. Cheeseman, G. Scalmani, V. Barone, B. Mennucci, 
 G. A. Petersson, H. Nakatsuji, M. Caricato, X. Li, H. P. Hratchian, 
 A. F. Izmaylov, J. Bloino, G. Zheng, J. L. Sonnenberg, M. Hada, 
 M. Ehara, K. Toyota, R. Fukuda, J. Hasegawa, M. Ishida, T. Nakajima, 
 Y. Honda, O. Kitao, H. Nakai, T. Vreven, J. A. Montgomery, Jr., 
 J. E. Peralta, F. Ogliaro, M. Bearpark, J. J. Heyd, E. Brothers, 
 K. N. Kudin, V. N. Staroverov, R. Kobayashi, J. Normand, 
 K. Raghavachari, A. Rendell, J. C. Burant, S. S. Iyengar, J. Tomasi, 
 M. Cossi, N. Rega, J. M. Millam, M. Klene, J. E. Knox, J. B. Cross, 
 V. Bakken, C. Adamo, J. Jaramillo, R. Gomperts, R. E. Stratmann, 
 O. Yazyev, A. J. Austin, R. Cammi, C. Pomelli, J. W. Ochterski, 
 R. L. Martin, K. Morokuma, V. G. Zakrzewski, G. A. Voth, 
 P. Salvador, J. J. Dannenberg, S. Dapprich, A. D. Daniels, 
 O. Farkas, J. B. Foresman, J. V. Ortiz, J. Cioslowski, 
 and D. J. Fox, Gaussian, Inc., Wallingford CT, 2009.
 
 ******************************************
 Gaussian 09:  AM64L-G09RevA.02 11-Jun-2009
                29-Apr-2014 
 ******************************************
 %NPROC=12
 Will use up to   12 processors via shared memory.
 %MEM=500MB
 --------------------------------------------------
 #P M06 6-311G** FREQ # GFINPUT IOP(6/7=3) POP=FULL
 --------------------------------------------------
 1/10=4,30=1,38=1/1,3;
 2/12=2,17=6,18=5,40=1/2;
 3/5=4,6=6,7=101,11=2,16=1,24=10,25=1,30=1,71=2,74=-54/1,2,3;
 4//1;
 5/5=2,38=5,98=1/2;
 8/6=4,10=90,11=11/1;
 11/6=1,8=1,9=11,15=111,16=1/1,2,10;
 10/6=1/2;
 6/7=3,18=1,28=1/1;
 7/8=1,10=1,25=1/1,2,3,16;
 1/10=4,30=1/3;
 99//99;
 Leave Link    1 at Tue Apr 29 14:49:48 2014, MaxMem=   65536000 cpu:       0.3
 (Enter /apps/gaussian/g09/l101.exe)
 --------------------
 RC, from TS 1reverse
 --------------------
 Symbolic Z-matrix:
 Charge =  0 Multiplicity = 2
 7                    -0.10867  -0.06422   0.09481 
 7                    -0.2348   -0.02245   1.2198 
 7                     0.28853  -0.00985  -1.07815 
 1                    -0.48915  -0.01812  -1.73566 
 1                     1.25255   1.35913  -1.54989 
 
 NAtoms=      5 NQM=      5 NQMF=      0 NMic=      0 NMicF=      0 NTot=      5.
                    Isotopes and Nuclear Properties:
 (Nuclear quadrupole moments (NQMom) in fm**2, nuclear magnetic moments (NMagM)
  in nuclear magnetons)

  Atom         1           2           3           4           5
 IAtWgt=          14          14          14           1           1
 AtmWgt=  14.0030740  14.0030740  14.0030740   1.0078250   1.0078250
 NucSpn=           2           2           2           1           1
 AtZEff=   0.0000000   0.0000000   0.0000000   0.0000000   0.0000000
 NQMom=    2.0440000   2.0440000   2.0440000   0.0000000   0.0000000
 NMagM=    0.4037610   0.4037610   0.4037610   2.7928460   2.7928460
 Leave Link  101 at Tue Apr 29 14:49:48 2014, MaxMem=   65536000 cpu:       0.6
 (Enter /apps/gaussian/g09/l103.exe)

 GradGradGradGradGradGradGradGradGradGradGradGradGradGradGradGradGradGrad
 Berny optimization.
 Initialization pass.
 Trust Radius=3.00D-01 FncErr=1.00D-07 GrdErr=1.00D-07
 Number of steps in this run=   2 maximum allowed number of steps=   2.
 GradGradGradGradGradGradGradGradGradGradGradGradGradGradGradGradGradGrad

 Leave Link  103 at Tue Apr 29 14:49:48 2014, MaxMem=   65536000 cpu:       0.1
 (Enter /apps/gaussian/g09/l202.exe)
                          Input orientation:                          
 ---------------------------------------------------------------------
 Center     Atomic      Atomic             Coordinates (Angstroms)
 Number     Number       Type             X           Y           Z
 ---------------------------------------------------------------------
      1          7           0       -0.108674   -0.064217    0.094813
      2          7           0       -0.234798   -0.022453    1.219802
      3          7           0        0.288529   -0.009846   -1.078148
      4          1           0       -0.489145   -0.018119   -1.735664
      5          1           0        1.252546    1.359133   -1.549886
 ---------------------------------------------------------------------
                    Distance matrix (angstroms):
                    1          2          3          4          5
     1  N    0.000000
     2  N    1.132807   0.000000
     3  N    1.239582   2.356821   0.000000
     4  H    1.870168   2.966394   1.018417   0.000000
     5  H    2.565907   3.433969   1.739531   2.228189   0.000000
 Stoichiometry    H2N3(2)
 Framework group  C1[X(H2N3)]
 Deg. of freedom     9
 Full point group                 C1      NOp   1
 Largest Abelian subgroup         C1      NOp   1
 Largest concise Abelian subgroup C1      NOp   1
                         Standard orientation:                         
 ---------------------------------------------------------------------
 Center     Atomic      Atomic             Coordinates (Angstroms)
 Number     Number       Type             X           Y           Z
 ---------------------------------------------------------------------
      1          7           0        0.199528   -0.109220    0.007170
      2          7           0        1.311395    0.107226    0.019664
      3          7           0       -1.032880   -0.088328   -0.124349
      4          1           0       -1.483765   -0.772963    0.479928
      5          1           0       -1.862540    1.405221    0.202676
 ---------------------------------------------------------------------
 Rotational constants (GHZ):    147.6184934     11.0872451     10.5084326
 Leave Link  202 at Tue Apr 29 14:49:48 2014, MaxMem=   65536000 cpu:       0.0
 (Enter /apps/gaussian/g09/l301.exe)
 Standard basis: 6-311G(d,p) (5D, 7F)
 Ernie: Thresh=  0.10000D-02 Tol=  0.10000D-05 Strict=F.
 AO basis set in the form of general basis input (Overlap normalization):
      1 0
 S   6 1.00       0.000000000000
      0.6293480000D+04  0.1969788147D-02
      0.9490440000D+03  0.1496128592D-01
      0.2187760000D+03  0.7350053084D-01
      0.6369160000D+02  0.2489367658D+00
      0.1882820000D+02  0.6024594331D+00
      0.2720230000D+01  0.2562017589D+00
 SP   3 1.00       0.000000000000
      0.3063310000D+02  0.1119060795D+00  0.3831191864D-01
      0.7026140000D+01  0.9216666549D+00  0.2374031155D+00
      0.2112050000D+01 -0.2569191826D-02  0.8175923978D+00
 SP   1 1.00       0.000000000000
      0.6840090000D+00  0.1000000000D+01  0.1000000000D+01
 SP   1 1.00       0.000000000000
      0.2008780000D+00  0.1000000000D+01  0.1000000000D+01
 D   1 1.00       0.000000000000
      0.9130000000D+00  0.1000000000D+01
 ****
      2 0
 S   6 1.00       0.000000000000
      0.6293480000D+04  0.1969788147D-02
      0.9490440000D+03  0.1496128592D-01
      0.2187760000D+03  0.7350053084D-01
      0.6369160000D+02  0.2489367658D+00
      0.1882820000D+02  0.6024594331D+00
      0.2720230000D+01  0.2562017589D+00
 SP   3 1.00       0.000000000000
      0.3063310000D+02  0.1119060795D+00  0.3831191864D-01
      0.7026140000D+01  0.9216666549D+00  0.2374031155D+00
      0.2112050000D+01 -0.2569191826D-02  0.8175923978D+00
 SP   1 1.00       0.000000000000
      0.6840090000D+00  0.1000000000D+01  0.1000000000D+01
 SP   1 1.00       0.000000000000
      0.2008780000D+00  0.1000000000D+01  0.1000000000D+01
 D   1 1.00       0.000000000000
      0.9130000000D+00  0.1000000000D+01
 ****
      3 0
 S   6 1.00       0.000000000000
      0.6293480000D+04  0.1969788147D-02
      0.9490440000D+03  0.1496128592D-01
      0.2187760000D+03  0.7350053084D-01
      0.6369160000D+02  0.2489367658D+00
      0.1882820000D+02  0.6024594331D+00
      0.2720230000D+01  0.2562017589D+00
 SP   3 1.00       0.000000000000
      0.3063310000D+02  0.1119060795D+00  0.3831191864D-01
      0.7026140000D+01  0.9216666549D+00  0.2374031155D+00
      0.2112050000D+01 -0.2569191826D-02  0.8175923978D+00
 SP   1 1.00       0.000000000000
      0.6840090000D+00  0.1000000000D+01  0.1000000000D+01
 SP   1 1.00       0.000000000000
      0.2008780000D+00  0.1000000000D+01  0.1000000000D+01
 D   1 1.00       0.000000000000
      0.9130000000D+00  0.1000000000D+01
 ****
      4 0
 S   3 1.00       0.000000000000
      0.3386500000D+02  0.2549381454D-01
      0.5094790000D+01  0.1903731086D+00
      0.1158790000D+01  0.8521614860D+00
 S   1 1.00       0.000000000000
      0.3258400000D+00  0.1000000000D+01
 S   1 1.00       0.000000000000
      0.1027410000D+00  0.1000000000D+01
 P   1 1.00       0.000000000000
      0.7500000000D+00  0.1000000000D+01
 ****
      5 0
 S   3 1.00       0.000000000000
      0.3386500000D+02  0.2549381454D-01
      0.5094790000D+01  0.1903731086D+00
      0.1158790000D+01  0.8521614860D+00
 S   1 1.00       0.000000000000
      0.3258400000D+00  0.1000000000D+01
 S   1 1.00       0.000000000000
      0.1027410000D+00  0.1000000000D+01
 P   1 1.00       0.000000000000
      0.7500000000D+00  0.1000000000D+01
 ****

 There are    66 symmetry adapted basis functions of A   symmetry.
 Integral buffers will be    131072 words long.
 Raffenetti 2 integral format.
 Two-electron integral symmetry is turned on.
    66 basis functions,   112 primitive gaussians,    69 cartesian basis functions
    12 alpha electrons       11 beta electrons
       nuclear repulsion energy        66.5657917172 Hartrees.
 IExCor= 4235 DFT=T Ex+Corr=M06 ExCW=0 ScaHFX=  0.270000
 ScaDFX=  1.000000  1.000000  1.000000  1.000000 ScalE2=  1.000000  1.000000
 IRadAn=      0 IRanWt=     -1 IRanGd=            0 ICorTp=0
 NAtoms=    5 NActive=    5 NUniq=    5 SFac= 7.50D-01 NAtFMM=   80 NAOKFM=F Big=F
 Leave Link  301 at Tue Apr 29 14:49:48 2014, MaxMem=   65536000 cpu:       0.3
 (Enter /apps/gaussian/g09/l302.exe)
 NPDir=0 NMtPBC=     1 NCelOv=     1 NCel=       1 NClECP=     1 NCelD=      1
         NCelK=      1 NCelE2=     1 NClLst=     1 CellRange=     0.0.
 One-electron integrals computed using PRISM.
 NBasis=    66 RedAO= T  NBF=    66
 NBsUse=    66 1.00D-06 NBFU=    66
 Precomputing XC quadrature grid using
 IXCGrd= 2 IRadAn=           0 IRanWt=          -1 IRanGd=           0 AccXCQ= 1.00D-10.
 NRdTot=     311 NPtTot=       39452 NUsed=       41707 NTot=       41739
 NSgBfM=    69    69    69    69    69 NAtAll=     5     5.
 Leave Link  302 at Tue Apr 29 14:49:48 2014, MaxMem=   65536000 cpu:       1.9
 (Enter /apps/gaussian/g09/l303.exe)
 DipDrv:  MaxL=1.
 Leave Link  303 at Tue Apr 29 14:49:48 2014, MaxMem=   65536000 cpu:       0.1
 (Enter /apps/gaussian/g09/l401.exe)
 Harris functional with IExCor= 1009 diagonalized for initial guess.
 ExpMin= 1.03D-01 ExpMax= 6.29D+03 ExpMxC= 9.49D+02 IAcc=1 IRadAn=         1 AccDes= 0.00D+00
 HarFok:  IExCor= 1009 AccDes= 0.00D+00 IRadAn=         1 IDoV= 1
 ScaDFX=  1.000000  1.000000  1.000000  1.000000
 FoFCou: FMM=F IPFlag=           0 FMFlag=      100000 FMFlg1=           0
         NFxFlg=           0 DoJE=T BraDBF=F KetDBF=T FulRan=T
         Omega=  0.000000  0.000000  1.000000  0.000000  0.000000 ICntrl=     500 IOpCl=  0
         NMat0=    1 NMatS0=    1 NMatT0=    0 NMatD0=    1 NMtDS0=    0 NMtDT0=    0
         I1Cent=           4 NGrid=           0.
 Petite list used in FoFCou.
 Harris En= -165.167208725476    
 Initial guess orbital symmetries:
 Alpha Orbitals:
       Occupied  (A) (A) (A) (A) (A) (A) (A) (A) (A) (A) (A) (A)
       Virtual   (A) (A) (A) (A) (A) (A) (A) (A) (A) (A) (A) (A)
                 (A) (A) (A) (A) (A) (A) (A) (A) (A) (A) (A) (A)
                 (A) (A) (A) (A) (A) (A) (A) (A) (A) (A) (A) (A)
                 (A) (A) (A) (A) (A) (A) (A) (A) (A) (A) (A) (A)
                 (A) (A) (A) (A) (A) (A)
 Beta  Orbitals:
       Occupied  (A) (A) (A) (A) (A) (A) (A) (A) (A) (A) (A)
       Virtual   (A) (A) (A) (A) (A) (A) (A) (A) (A) (A) (A) (A)
                 (A) (A) (A) (A) (A) (A) (A) (A) (A) (A) (A) (A)
                 (A) (A) (A) (A) (A) (A) (A) (A) (A) (A) (A) (A)
                 (A) (A) (A) (A) (A) (A) (A) (A) (A) (A) (A) (A)
                 (A) (A) (A) (A) (A) (A) (A)
 The electronic state of the initial guess is 2-A.
 Initial guess <Sx>= 0.0000 <Sy>= 0.0000 <Sz>= 0.5000 <S**2>= 0.7500 S= 0.5000
 Leave Link  401 at Tue Apr 29 14:49:48 2014, MaxMem=   65536000 cpu:       2.2
 (Enter /apps/gaussian/g09/l502.exe)
 UHF open shell SCF:
 Requested convergence on RMS density matrix=1.00D-08 within 128 cycles.
 Requested convergence on MAX density matrix=1.00D-06.
 Requested convergence on             energy=1.00D-06.
 No special actions if energy rises.
 Using DIIS extrapolation, IDIIS=  1040.
 Integral symmetry usage will be decided dynamically.
        41649 words used for storage of precomputed grid.
 Keep R1 and R2 ints in memory in canonical form, NReq=6799222.
 IEnd=       75419 IEndB=       75419 NGot=    65536000 MDV=    59647384
 LenX=    59647384 LenY=    59642182
 Symmetry not used in FoFDir.
 MinBra= 0 MaxBra= 2 Meth= 1.
 IRaf=       0 NMat=   1 IRICut=       1 DoRegI=T DoRafI=F ISym2E= 0 JSym2E=0.
 Integral accuracy reduced to 1.0D-05 until final iterations.

 Cycle   1  Pass 0  IDiag  1:
 E= -165.181164819426    
 DIIS: error= 2.73D-02 at cycle   1 NSaved=   1.
 NSaved= 1 IEnMin= 1 EnMin= -165.181164819426     IErMin= 1 ErrMin= 2.73D-02
 ErrMax= 2.73D-02 EMaxC= 1.00D-01 BMatC= 2.01D-01 BMatP= 2.01D-01
 IDIUse=3 WtCom= 7.27D-01 WtEn= 2.73D-01
 Coeff-Com:  0.100D+01
 Coeff-En:   0.100D+01
 Coeff:      0.100D+01
 Gap=     0.176 Goal=   None    Shift=    0.000
 Gap=     0.203 Goal=   None    Shift=    0.000
 GapD=    0.176 DampG=1.000 DampE=0.500 DampFc=0.5000 IDamp=-1.
 Damping current iteration by 5.00D-01
 RMSDP=5.83D-03 MaxDP=1.33D-01              OVMax= 1.34D-01

 Cycle   2  Pass 0  IDiag  1:
 E= -165.193017288390     Delta-E=       -0.011852468964 Rises=F Damp=T
 DIIS: error= 9.83D-03 at cycle   2 NSaved=   2.
 NSaved= 2 IEnMin= 2 EnMin= -165.193017288390     IErMin= 2 ErrMin= 9.83D-03
 ErrMax= 9.83D-03 EMaxC= 1.00D-01 BMatC= 3.47D-02 BMatP= 2.01D-01
 IDIUse=3 WtCom= 9.02D-01 WtEn= 9.83D-02
 Coeff-Com:  0.226D+00 0.774D+00
 Coeff-En:   0.323D+00 0.677D+00
 Coeff:      0.235D+00 0.765D+00
 Gap=     0.173 Goal=   None    Shift=    0.000
 Gap=     0.228 Goal=   None    Shift=    0.000
 RMSDP=1.37D-03 MaxDP=2.04D-02 DE=-1.19D-02 OVMax= 8.84D-02

 Cycle   3  Pass 0  IDiag  1:
 E= -165.218785853994     Delta-E=       -0.025768565604 Rises=F Damp=F
 DIIS: error= 1.06D-02 at cycle   3 NSaved=   3.
 NSaved= 3 IEnMin= 3 EnMin= -165.218785853994     IErMin= 2 ErrMin= 9.83D-03
 ErrMax= 1.06D-02 EMaxC= 1.00D-01 BMatC= 1.82D-02 BMatP= 3.47D-02
 IDIUse=3 WtCom= 8.94D-01 WtEn= 1.06D-01
 Coeff-Com:  0.664D-01 0.407D+00 0.526D+00
 Coeff-En:   0.000D+00 0.000D+00 0.100D+01
 Coeff:      0.593D-01 0.364D+00 0.577D+00
 Gap=     0.174 Goal=   None    Shift=    0.000
 Gap=     0.244 Goal=   None    Shift=    0.000
 RMSDP=1.14D-03 MaxDP=1.45D-02 DE=-2.58D-02 OVMax= 4.27D-02

 Cycle   4  Pass 0  IDiag  1:
 E= -165.219067037429     Delta-E=       -0.000281183435 Rises=F Damp=F
 DIIS: error= 1.26D-02 at cycle   4 NSaved=   4.
 NSaved= 4 IEnMin= 4 EnMin= -165.219067037429     IErMin= 2 ErrMin= 9.83D-03
 ErrMax= 1.26D-02 EMaxC= 1.00D-01 BMatC= 1.76D-02 BMatP= 1.82D-02
 IDIUse=3 WtCom= 8.74D-01 WtEn= 1.26D-01
 Coeff-Com:  0.610D-02 0.126D+00 0.475D+00 0.393D+00
 Coeff-En:   0.000D+00 0.000D+00 0.486D+00 0.514D+00
 Coeff:      0.533D-02 0.110D+00 0.476D+00 0.408D+00
 Gap=     0.172 Goal=   None    Shift=    0.000
 Gap=     0.243 Goal=   None    Shift=    0.000
 RMSDP=6.81D-04 MaxDP=7.15D-03 DE=-2.81D-04 OVMax= 2.80D-02

 Cycle   5  Pass 0  IDiag  1:
 E= -165.222760765608     Delta-E=       -0.003693728179 Rises=F Damp=F
 DIIS: error= 1.90D-03 at cycle   5 NSaved=   5.
 NSaved= 5 IEnMin= 5 EnMin= -165.222760765608     IErMin= 5 ErrMin= 1.90D-03
 ErrMax= 1.90D-03 EMaxC= 1.00D-01 BMatC= 6.71D-04 BMatP= 1.76D-02
 IDIUse=3 WtCom= 9.81D-01 WtEn= 1.90D-02
 Coeff-Com: -0.873D-02-0.372D-02 0.164D+00 0.216D+00 0.633D+00
 Coeff-En:   0.000D+00 0.000D+00 0.000D+00 0.000D+00 0.100D+01
 Coeff:     -0.856D-02-0.365D-02 0.161D+00 0.211D+00 0.640D+00
 Gap=     0.178 Goal=   None    Shift=    0.000
 Gap=     0.244 Goal=   None    Shift=    0.000
 RMSDP=2.88D-04 MaxDP=4.94D-03 DE=-3.69D-03 OVMax= 1.66D-02

 Cycle   6  Pass 0  IDiag  1:
 E= -165.222983135328     Delta-E=       -0.000222369720 Rises=F Damp=F
 DIIS: error= 8.44D-04 at cycle   6 NSaved=   6.
 NSaved= 6 IEnMin= 6 EnMin= -165.222983135328     IErMin= 6 ErrMin= 8.44D-04
 ErrMax= 8.44D-04 EMaxC= 1.00D-01 BMatC= 9.97D-05 BMatP= 6.71D-04
 IDIUse=3 WtCom= 9.92D-01 WtEn= 8.44D-03
 Coeff-Com: -0.813D-02-0.112D-01-0.746D-01-0.853D-01 0.145D+00 0.103D+01
 Coeff-En:   0.000D+00 0.000D+00 0.000D+00 0.000D+00 0.000D+00 0.100D+01
 Coeff:     -0.806D-02-0.111D-01-0.740D-01-0.845D-01 0.144D+00 0.103D+01
 Gap=     0.178 Goal=   None    Shift=    0.000
 Gap=     0.246 Goal=   None    Shift=    0.000
 RMSDP=1.30D-04 MaxDP=2.03D-03 DE=-2.22D-04 OVMax= 7.20D-03

 Cycle   7  Pass 0  IDiag  1:
 E= -165.223039441811     Delta-E=       -0.000056306483 Rises=F Damp=F
 DIIS: error= 1.73D-04 at cycle   7 NSaved=   7.
 NSaved= 7 IEnMin= 7 EnMin= -165.223039441811     IErMin= 7 ErrMin= 1.73D-04
 ErrMax= 1.73D-04 EMaxC= 1.00D-01 BMatC= 5.21D-06 BMatP= 9.97D-05
 IDIUse=3 WtCom= 9.98D-01 WtEn= 1.73D-03
 Coeff-Com: -0.761D-03 0.131D-02-0.269D-01-0.340D-01-0.812D-01 0.152D+00
 Coeff-Com:  0.990D+00
 Coeff-En:   0.000D+00 0.000D+00 0.000D+00 0.000D+00 0.000D+00 0.000D+00
 Coeff-En:   0.100D+01
 Coeff:     -0.759D-03 0.131D-02-0.268D-01-0.339D-01-0.811D-01 0.151D+00
 Coeff:      0.990D+00
 Gap=     0.179 Goal=   None    Shift=    0.000
 Gap=     0.247 Goal=   None    Shift=    0.000
 RMSDP=5.56D-05 MaxDP=9.96D-04 DE=-5.63D-05 OVMax= 2.83D-03

 Cycle   8  Pass 0  IDiag  1:
 E= -165.223044005104     Delta-E=       -0.000004563293 Rises=F Damp=F
 DIIS: error= 6.04D-05 at cycle   8 NSaved=   8.
 NSaved= 8 IEnMin= 8 EnMin= -165.223044005104     IErMin= 8 ErrMin= 6.04D-05
 ErrMax= 6.04D-05 EMaxC= 1.00D-01 BMatC= 2.75D-07 BMatP= 5.21D-06
 IDIUse=1 WtCom= 1.00D+00 WtEn= 0.00D+00
 Coeff-Com:  0.440D-03 0.712D-03 0.425D-02 0.226D-02-0.909D-02-0.531D-01
 Coeff-Com: -0.375D-02 0.106D+01
 Coeff:      0.440D-03 0.712D-03 0.425D-02 0.226D-02-0.909D-02-0.531D-01
 Coeff:     -0.375D-02 0.106D+01
 Gap=     0.179 Goal=   None    Shift=    0.000
 Gap=     0.247 Goal=   None    Shift=    0.000
 RMSDP=1.18D-05 MaxDP=1.53D-04 DE=-4.56D-06 OVMax= 5.15D-04

 Cycle   9  Pass 0  IDiag  1:
 E= -165.223044285752     Delta-E=       -0.000000280648 Rises=F Damp=F
 DIIS: error= 1.77D-05 at cycle   9 NSaved=   9.
 NSaved= 9 IEnMin= 9 EnMin= -165.223044285752     IErMin= 9 ErrMin= 1.77D-05
 ErrMax= 1.77D-05 EMaxC= 1.00D-01 BMatC= 2.80D-08 BMatP= 2.75D-07
 IDIUse=1 WtCom= 1.00D+00 WtEn= 0.00D+00
 Coeff-Com:  0.193D-04 0.868D-04 0.256D-02 0.301D-02 0.780D-02-0.164D-01
 Coeff-Com: -0.891D-01 0.252D-01 0.107D+01
 Coeff:      0.193D-04 0.868D-04 0.256D-02 0.301D-02 0.780D-02-0.164D-01
 Coeff:     -0.891D-01 0.252D-01 0.107D+01
 Gap=     0.179 Goal=   None    Shift=    0.000
 Gap=     0.247 Goal=   None    Shift=    0.000
 RMSDP=4.16D-06 MaxDP=4.21D-05 DE=-2.81D-07 OVMax= 1.81D-04

 Initial convergence to 1.0D-05 achieved.  Increase integral accuracy.
 Cycle  10  Pass 1  IDiag  1:
 E= -165.223039861610     Delta-E=        0.000004424142 Rises=F Damp=F
 DIIS: error= 2.52D-04 at cycle   1 NSaved=   1.
 NSaved= 1 IEnMin= 1 EnMin= -165.223039861610     IErMin= 1 ErrMin= 2.52D-04
 ErrMax= 2.52D-04 EMaxC= 1.00D-01 BMatC= 2.24D-05 BMatP= 2.24D-05
 IDIUse=3 WtCom= 9.97D-01 WtEn= 2.52D-03
 Coeff-Com:  0.100D+01
 Coeff-En:   0.100D+01
 Coeff:      0.100D+01
 Gap=     0.179 Goal=   None    Shift=    0.000
 Gap=     0.247 Goal=   None    Shift=    0.000
 RMSDP=4.16D-06 MaxDP=4.21D-05 DE= 4.42D-06 OVMax= 6.76D-04

 Cycle  11  Pass 1  IDiag  1:
 E= -165.223044171870     Delta-E=       -0.000004310260 Rises=F Damp=F
 DIIS: error= 2.34D-05 at cycle   2 NSaved=   2.
 NSaved= 2 IEnMin= 2 EnMin= -165.223044171870     IErMin= 2 ErrMin= 2.34D-05
 ErrMax= 2.34D-05 EMaxC= 1.00D-01 BMatC= 1.39D-07 BMatP= 2.24D-05
 IDIUse=1 WtCom= 1.00D+00 WtEn= 0.00D+00
 Coeff-Com:  0.116D-01 0.988D+00
 Coeff:      0.116D-01 0.988D+00
 Gap=     0.179 Goal=   None    Shift=    0.000
 Gap=     0.247 Goal=   None    Shift=    0.000
 RMSDP=6.27D-06 MaxDP=1.08D-04 DE=-4.31D-06 OVMax= 9.86D-05

 Cycle  12  Pass 1  IDiag  1:
 E= -165.223044159629     Delta-E=        0.000000012241 Rises=F Damp=F
 DIIS: error= 3.32D-05 at cycle   3 NSaved=   3.
 NSaved= 3 IEnMin= 2 EnMin= -165.223044171870     IErMin= 2 ErrMin= 2.34D-05
 ErrMax= 3.32D-05 EMaxC= 1.00D-01 BMatC= 2.73D-07 BMatP= 1.39D-07
 IDIUse=1 WtCom= 1.00D+00 WtEn= 0.00D+00
 Coeff-Com:  0.110D-02 0.602D+00 0.397D+00
 Coeff:      0.110D-02 0.602D+00 0.397D+00
 Gap=     0.179 Goal=   None    Shift=    0.000
 Gap=     0.247 Goal=   None    Shift=    0.000
 RMSDP=2.72D-06 MaxDP=3.79D-05 DE= 1.22D-08 OVMax= 8.35D-05

 Cycle  13  Pass 1  IDiag  1:
 E= -165.223044201157     Delta-E=       -0.000000041528 Rises=F Damp=F
 DIIS: error= 2.05D-05 at cycle   4 NSaved=   4.
 NSaved= 4 IEnMin= 4 EnMin= -165.223044201157     IErMin= 4 ErrMin= 2.05D-05
 ErrMax= 2.05D-05 EMaxC= 1.00D-01 BMatC= 4.49D-08 BMatP= 1.39D-07
 IDIUse=1 WtCom= 1.00D+00 WtEn= 0.00D+00
 Coeff-Com: -0.211D-02 0.143D+00 0.278D+00 0.581D+00
 Coeff:     -0.211D-02 0.143D+00 0.278D+00 0.581D+00
 Gap=     0.179 Goal=   None    Shift=    0.000
 Gap=     0.247 Goal=   None    Shift=    0.000
 RMSDP=1.78D-06 MaxDP=1.98D-05 DE=-4.15D-08 OVMax= 8.09D-05

 Cycle  14  Pass 1  IDiag  1:
 E= -165.223044207652     Delta-E=       -0.000000006495 Rises=F Damp=F
 DIIS: error= 1.24D-05 at cycle   5 NSaved=   5.
 NSaved= 5 IEnMin= 5 EnMin= -165.223044207652     IErMin= 5 ErrMin= 1.24D-05
 ErrMax= 1.24D-05 EMaxC= 1.00D-01 BMatC= 1.65D-08 BMatP= 4.49D-08
 IDIUse=1 WtCom= 1.00D+00 WtEn= 0.00D+00
 Coeff-Com: -0.181D-02-0.203D-02 0.126D+00 0.446D+00 0.432D+00
 Coeff:     -0.181D-02-0.203D-02 0.126D+00 0.446D+00 0.432D+00
 Gap=     0.179 Goal=   None    Shift=    0.000
 Gap=     0.247 Goal=   None    Shift=    0.000
 RMSDP=7.04D-07 MaxDP=6.40D-06 DE=-6.50D-09 OVMax= 2.61D-05

 Cycle  15  Pass 1  IDiag  1:
 E= -165.223044211551     Delta-E=       -0.000000003899 Rises=F Damp=F
 DIIS: error= 1.59D-06 at cycle   6 NSaved=   6.
 NSaved= 6 IEnMin= 6 EnMin= -165.223044211551     IErMin= 6 ErrMin= 1.59D-06
 ErrMax= 1.59D-06 EMaxC= 1.00D-01 BMatC= 5.44D-10 BMatP= 1.65D-08
 IDIUse=1 WtCom= 1.00D+00 WtEn= 0.00D+00
 Coeff-Com: -0.681D-03-0.149D-01 0.311D-01 0.155D+00 0.186D+00 0.644D+00
 Coeff:     -0.681D-03-0.149D-01 0.311D-01 0.155D+00 0.186D+00 0.644D+00
 Gap=     0.179 Goal=   None    Shift=    0.000
 Gap=     0.247 Goal=   None    Shift=    0.000
 RMSDP=1.88D-07 MaxDP=2.93D-06 DE=-3.90D-09 OVMax= 9.20D-06

 Cycle  16  Pass 1  IDiag  1:
 E= -165.223044211737     Delta-E=       -0.000000000185 Rises=F Damp=F
 DIIS: error= 6.87D-07 at cycle   7 NSaved=   7.
 NSaved= 7 IEnMin= 7 EnMin= -165.223044211737     IErMin= 7 ErrMin= 6.87D-07
 ErrMax= 6.87D-07 EMaxC= 1.00D-01 BMatC= 1.00D-10 BMatP= 5.44D-10
 IDIUse=1 WtCom= 1.00D+00 WtEn= 0.00D+00
 Coeff-Com:  0.227D-03-0.649D-02-0.167D-01-0.541D-01-0.560D-01 0.192D+00
 Coeff-Com:  0.941D+00
 Coeff:      0.227D-03-0.649D-02-0.167D-01-0.541D-01-0.560D-01 0.192D+00
 Coeff:      0.941D+00
 Gap=     0.179 Goal=   None    Shift=    0.000
 Gap=     0.247 Goal=   None    Shift=    0.000
 RMSDP=1.52D-07 MaxDP=2.48D-06 DE=-1.85D-10 OVMax= 7.18D-06

 Cycle  17  Pass 1  IDiag  1:
 E= -165.223044211801     Delta-E=       -0.000000000064 Rises=F Damp=F
 DIIS: error= 2.09D-07 at cycle   8 NSaved=   8.
 NSaved= 8 IEnMin= 8 EnMin= -165.223044211801     IErMin= 8 ErrMin= 2.09D-07
 ErrMax= 2.09D-07 EMaxC= 1.00D-01 BMatC= 8.41D-12 BMatP= 1.00D-10
 IDIUse=1 WtCom= 1.00D+00 WtEn= 0.00D+00
 Coeff-Com:  0.162D-03 0.197D-02-0.549D-02-0.350D-01-0.420D-01-0.698D-01
 Coeff-Com:  0.681D-01 0.108D+01
 Coeff:      0.162D-03 0.197D-02-0.549D-02-0.350D-01-0.420D-01-0.698D-01
 Coeff:      0.681D-01 0.108D+01
 Gap=     0.179 Goal=   None    Shift=    0.000
 Gap=     0.247 Goal=   None    Shift=    0.000
 RMSDP=7.67D-08 MaxDP=8.38D-07 DE=-6.39D-11 OVMax= 3.80D-06

 Cycle  18  Pass 1  IDiag  1:
 E= -165.223044211812     Delta-E=       -0.000000000011 Rises=F Damp=F
 DIIS: error= 7.59D-08 at cycle   9 NSaved=   9.
 NSaved= 9 IEnMin= 9 EnMin= -165.223044211812     IErMin= 9 ErrMin= 7.59D-08
 ErrMax= 7.59D-08 EMaxC= 1.00D-01 BMatC= 8.72D-13 BMatP= 8.41D-12
 IDIUse=1 WtCom= 1.00D+00 WtEn= 0.00D+00
 Coeff-Com: -0.439D-05 0.486D-03 0.673D-03 0.212D-02-0.101D-02-0.138D-01
 Coeff-Com: -0.910D-01 0.873D-01 0.102D+01
 Coeff:     -0.439D-05 0.486D-03 0.673D-03 0.212D-02-0.101D-02-0.138D-01
 Coeff:     -0.910D-01 0.873D-01 0.102D+01
 Gap=     0.179 Goal=   None    Shift=    0.000
 Gap=     0.247 Goal=   None    Shift=    0.000
 RMSDP=2.26D-08 MaxDP=2.77D-07 DE=-1.14D-11 OVMax= 1.10D-06

 Cycle  19  Pass 1  IDiag  1:
 E= -165.223044211813     Delta-E=       -0.000000000001 Rises=F Damp=F
 DIIS: error= 2.56D-08 at cycle  10 NSaved=  10.
 NSaved=10 IEnMin=10 EnMin= -165.223044211813     IErMin=10 ErrMin= 2.56D-08
 ErrMax= 2.56D-08 EMaxC= 1.00D-01 BMatC= 9.58D-14 BMatP= 8.72D-13
 IDIUse=1 WtCom= 1.00D+00 WtEn= 0.00D+00
 Coeff-Com: -0.147D-04-0.180D-03 0.634D-03 0.392D-02 0.321D-02 0.692D-02
 Coeff-Com: -0.798D-02-0.104D+00-0.250D-01 0.112D+01
 Coeff:     -0.147D-04-0.180D-03 0.634D-03 0.392D-02 0.321D-02 0.692D-02
 Coeff:     -0.798D-02-0.104D+00-0.250D-01 0.112D+01
 Gap=     0.179 Goal=   None    Shift=    0.000
 Gap=     0.247 Goal=   None    Shift=    0.000
 RMSDP=7.93D-09 MaxDP=9.61D-08 DE=-6.82D-13 OVMax= 3.69D-07

 SCF Done:  E(UM06) =  -165.223044212     A.U. after   19 cycles
             Convg  =    0.7931D-08             -V/T =  2.0020
 <Sx>= 0.0000 <Sy>= 0.0000 <Sz>= 0.5000 <S**2>= 0.7610 S= 0.5055
 <L.S>=  0.00000000000    
 KE= 1.648923719525D+02 PE=-5.195482631787D+02 EE= 1.228670552972D+02
 Annihilation of the first spin contaminant:
 S**2 before annihilation     0.7610,   after     0.7500
 Leave Link  502 at Tue Apr 29 14:49:50 2014, MaxMem=   65536000 cpu:      16.0
 (Enter /apps/gaussian/g09/l801.exe)
 Range of M.O.s used for correlation:     1    66
 NBasis=    66 NAE=    12 NBE=    11 NFC=     0 NFV=     0
 NROrb=     66 NOA=    12 NOB=    11 NVA=    54 NVB=    55
 Leave Link  801 at Tue Apr 29 14:49:50 2014, MaxMem=   65536000 cpu:       0.2
 (Enter /apps/gaussian/g09/l1101.exe)
 Using compressed storage, NAtomX=     5.
 Will process   6 centers per pass.
 Leave Link 1101 at Tue Apr 29 14:49:50 2014, MaxMem=   65536000 cpu:       1.4
 (Enter /apps/gaussian/g09/l1102.exe)
 Symmetrizing basis deriv contribution to polar:
 IMax=3 JMax=2 DiffMx= 0.00D+00
 Leave Link 1102 at Tue Apr 29 14:49:50 2014, MaxMem=   65536000 cpu:       0.2
 (Enter /apps/gaussian/g09/l1110.exe)
 Forming Gx(P) for the SCF density, NAtomX=     5.
 Integral derivatives from FoFDir/FoFCou, PRISM(SPDF).
 Do as many integral derivatives as possible in FoFDir.
 G2DrvN: MDV=      65535856.
 G2DrvN: will do     6 centers at a time, making    1 passes doing MaxLOS=2.
 Calling FoFCou, ICntrl=  3107 FMM=F I1Cent=   0 AccDes= 0.00D+00.
 FoFCou: FMM=F IPFlag=           0 FMFlag=      100000 FMFlg1=           0
         NFxFlg=           0 DoJE=F BraDBF=F KetDBF=F FulRan=T
         Omega=  0.000000  0.000000  1.000000  0.000000  0.000000 ICntrl=    3107 IOpCl=  1
         NMat0=    1 NMatS0=    1 NMatT0=    0 NMatD0=    1 NMtDS0=    0 NMtDT0=    0
         I1Cent=           0 NGrid=           0.
 Symmetry not used in FoFCou.
 FoFDir/FoFCou used for L=0 through L=2.
 End of G2Drv Frequency-dependent properties file   721 does not exist.
 End of G2Drv Frequency-dependent properties file   722 does not exist.
 Leave Link 1110 at Tue Apr 29 14:49:52 2014, MaxMem=   65536000 cpu:      16.7
 (Enter /apps/gaussian/g09/l1002.exe)
 Minotr:  UHF open shell wavefunction.
          IDoAtm=11111
          Direct CPHF calculation.
          Differentiating once with respect to electric field.
                with respect to dipole field.
          Differentiating once with respect to nuclear coordinates.
          Requested convergence is 1.0D-08 RMS, and 1.0D-07 maximum.
          Secondary convergence is 1.0D-12 RMS, and 1.0D-12 maximum.
          NewPWx=T KeepS1=F KeepF1=F KeepIn=T MapXYZ=F SortEE=F KeepMc=T.
          MDV=      65535946 using IRadAn=       2.
 Generate precomputed XC quadrature information.
          Keep R1 and R2 ints in memory in canonical form, NReq=6656460.
 Symmetry not used in FoFDir.
 MinBra= 0 MaxBra= 2 Meth= 1.
 IRaf=       0 NMat=   1 IRICut=       1 DoRegI=T DoRafI=F ISym2E= 0 JSym2E=0.
          Solving linear equations simultaneously, MaxMat=       0.
          There are    18 degrees of freedom in the 1st order CPHF.  IDoFFX=5.
     15 vectors produced by pass  0 Test12= 6.96D-15 5.56D-09 XBig12= 1.80D+02 6.58D+00.
 AX will form    15 AO Fock derivatives at one time.
     15 vectors produced by pass  1 Test12= 6.96D-15 5.56D-09 XBig12= 6.79D+01 1.66D+00.
     15 vectors produced by pass  2 Test12= 6.96D-15 5.56D-09 XBig12= 1.24D+00 2.41D-01.
     15 vectors produced by pass  3 Test12= 6.96D-15 5.56D-09 XBig12= 2.65D-02 3.55D-02.
     15 vectors produced by pass  4 Test12= 6.96D-15 5.56D-09 XBig12= 3.19D-04 3.45D-03.
     15 vectors produced by pass  5 Test12= 6.96D-15 5.56D-09 XBig12= 3.46D-06 4.27D-04.
     13 vectors produced by pass  6 Test12= 6.96D-15 5.56D-09 XBig12= 2.26D-08 2.57D-05.
      6 vectors produced by pass  7 Test12= 6.96D-15 5.56D-09 XBig12= 8.10D-11 1.53D-06.
      2 vectors produced by pass  8 Test12= 6.96D-15 5.56D-09 XBig12= 3.02D-13 9.36D-08.
 Inverted reduced A of dimension   111 with in-core refinement.
 FullF1:  Do perturbations    1 to     3.
 Isotropic polarizability for W=    0.000000       28.07 Bohr**3.
 End of Minotr Frequency-dependent properties file   721 does not exist.
 End of Minotr Frequency-dependent properties file   722 does not exist.
 Leave Link 1002 at Tue Apr 29 14:49:54 2014, MaxMem=   65536000 cpu:      24.7
 (Enter /apps/gaussian/g09/l601.exe)
 Copying SCF densities to generalized density rwf, IOpCl= 1 IROHF=0.

 **********************************************************************

            Population analysis using the SCF density.

 **********************************************************************

 Orbital symmetries:
 Alpha Orbitals:
       Occupied  (A) (A) (A) (A) (A) (A) (A) (A) (A) (A) (A) (A)
       Virtual   (A) (A) (A) (A) (A) (A) (A) (A) (A) (A) (A) (A)
                 (A) (A) (A) (A) (A) (A) (A) (A) (A) (A) (A) (A)
                 (A) (A) (A) (A) (A) (A) (A) (A) (A) (A) (A) (A)
                 (A) (A) (A) (A) (A) (A) (A) (A) (A) (A) (A) (A)
                 (A) (A) (A) (A) (A) (A)
 Beta  Orbitals:
       Occupied  (A) (A) (A) (A) (A) (A) (A) (A) (A) (A) (A)
       Virtual   (A) (A) (A) (A) (A) (A) (A) (A) (A) (A) (A) (A)
                 (A) (A) (A) (A) (A) (A) (A) (A) (A) (A) (A) (A)
                 (A) (A) (A) (A) (A) (A) (A) (A) (A) (A) (A) (A)
                 (A) (A) (A) (A) (A) (A) (A) (A) (A) (A) (A) (A)
                 (A) (A) (A) (A) (A) (A) (A)
 The electronic state is 2-A.
 Alpha  occ. eigenvalues --  -14.56919 -14.47232 -14.45833  -1.17567  -1.00909
 Alpha  occ. eigenvalues --   -0.65602  -0.55968  -0.54515  -0.48166  -0.39134
 Alpha  occ. eigenvalues --   -0.32354  -0.21682
 Alpha virt. eigenvalues --   -0.03791   0.00697   0.03818   0.22248   0.25944
 Alpha virt. eigenvalues --    0.36426   0.41923   0.45543   0.50107   0.52905
 Alpha virt. eigenvalues --    0.60154   0.64571   0.67547   0.68805   0.74174
 Alpha virt. eigenvalues --    0.77747   0.91176   1.02011   1.12184   1.21934
 Alpha virt. eigenvalues --    1.36378   1.40462   1.43895   1.50601   1.64904
 Alpha virt. eigenvalues --    1.66105   1.70673   1.83590   1.86265   2.07364
 Alpha virt. eigenvalues --    2.10034   2.16967   2.23678   2.35488   2.38680
 Alpha virt. eigenvalues --    2.47379   2.47616   2.65819   2.85116   3.02761
 Alpha virt. eigenvalues --    3.17261   3.48089   3.51372   3.62938   3.87273
 Alpha virt. eigenvalues --    3.90002   3.90586   4.07967   4.27195   4.35881
 Alpha virt. eigenvalues --    5.03200  34.96422  35.46483  36.16102
  Beta  occ. eigenvalues --  -14.56889 -14.46901 -14.45687  -1.16983  -1.00339
  Beta  occ. eigenvalues --   -0.65432  -0.54741  -0.54267  -0.47183  -0.36951
  Beta  occ. eigenvalues --   -0.31376
  Beta virt. eigenvalues --   -0.06637  -0.02378   0.02169   0.05127   0.22690
  Beta virt. eigenvalues --    0.35990   0.38261   0.41832   0.45625   0.50117
  Beta virt. eigenvalues --    0.53878   0.60392   0.65108   0.67918   0.68832
  Beta virt. eigenvalues --    0.74150   0.78464   0.91633   1.02592   1.12472
  Beta virt. eigenvalues --    1.22672   1.40370   1.44876   1.45867   1.52717
  Beta virt. eigenvalues --    1.65561   1.66696   1.71279   1.84246   1.90492
  Beta virt. eigenvalues --    2.08189   2.10962   2.21283   2.24608   2.37940
  Beta virt. eigenvalues --    2.39080   2.47526   2.62293   2.66466   2.85222
  Beta virt. eigenvalues --    3.03750   3.17742   3.47925   3.51731   3.63519
  Beta virt. eigenvalues --    3.87147   3.90665   3.91498   4.07958   4.26946
  Beta virt. eigenvalues --    4.36107   5.03216  34.96747  35.46728  36.16401
     Alpha Molecular Orbital Coefficients:
                           1         2         3         4         5
                           O         O         O         O         O
     Eigenvalues --   -14.56919 -14.47232 -14.45833  -1.17567  -1.00909
   1 1   N  1S          0.55747  -0.00329  -0.00118  -0.10515  -0.00573
   2        2S          0.46463  -0.00211  -0.00072  -0.16310  -0.00944
   3        2PX        -0.00026   0.00104  -0.00077   0.03163  -0.17791
   4        2PY         0.00024   0.00017  -0.00001   0.01487  -0.01869
   5        2PZ        -0.00014   0.00002  -0.00007  -0.00296  -0.00724
   6        3S          0.01828  -0.00280  -0.00091   0.46290   0.03233
   7        3PX         0.00238  -0.00574   0.00282   0.03110  -0.23651
   8        3PY         0.00086  -0.00098   0.00001   0.01786  -0.02413
   9        3PZ        -0.00012  -0.00011   0.00024  -0.00431  -0.00970
  10        4S         -0.00359   0.00345   0.00209   0.21088   0.02565
  11        4PX         0.00056   0.00775  -0.00801  -0.00654  -0.06697
  12        4PY        -0.00021   0.00090  -0.00019   0.00386  -0.01013
  13        4PZ         0.00007   0.00034  -0.00035  -0.00122  -0.00166
  14        5D 0       -0.00234   0.00136   0.00068  -0.01217  -0.00139
  15        5D+1        0.00039  -0.00003  -0.00033   0.00187   0.00113
  16        5D-1        0.00003  -0.00001   0.00002  -0.00062  -0.00019
  17        5D+2        0.00392  -0.00218  -0.00126   0.01941   0.00282
  18        5D-2        0.00090  -0.00094   0.00011   0.00456  -0.00258
  19 2   N  1S          0.00308   0.55742   0.00074  -0.06736   0.06541
  20        2S          0.00333   0.46515   0.00064  -0.10377   0.10197
  21        2PX        -0.00079  -0.00179  -0.00008  -0.08157   0.06873
  22        2PY        -0.00019  -0.00036   0.00003  -0.01530   0.01586
  23        2PZ         0.00000  -0.00002  -0.00003  -0.00124   0.00010
  24        3S         -0.00314   0.01693  -0.00002   0.28986  -0.28840
  25        3PX         0.00549  -0.00407   0.00012  -0.10849   0.08944
  26        3PY         0.00120  -0.00078  -0.00015  -0.01978   0.02165
  27        3PZ         0.00000  -0.00005   0.00010  -0.00183  -0.00023
  28        4S         -0.00100  -0.01181   0.00522   0.11453  -0.13945
  29        4PX        -0.00029   0.00399  -0.00170  -0.02242   0.02504
  30        4PY         0.00004   0.00097  -0.00067  -0.00556   0.00609
  31        4PZ        -0.00003  -0.00004  -0.00003   0.00009  -0.00020
  32        5D 0        0.00156  -0.00125   0.00004  -0.00889   0.00801
  33        5D+1        0.00001   0.00007  -0.00007   0.00052   0.00016
  34        5D-1        0.00000   0.00001  -0.00002  -0.00018   0.00023
  35        5D+2       -0.00243   0.00199  -0.00015   0.01343  -0.01114
  36        5D-2       -0.00116   0.00077   0.00016   0.00519  -0.00630
  37 3   N  1S          0.00110  -0.00074   0.55760  -0.04664  -0.08528
  38        2S          0.00127  -0.00060   0.46504  -0.07186  -0.13268
  39        2PX         0.00089   0.00013   0.00130   0.04731   0.05845
  40        2PY         0.00005   0.00006  -0.00067  -0.00470  -0.01661
  41        2PZ         0.00001  -0.00002   0.00092   0.01056   0.02355
  42        3S         -0.00099  -0.00005   0.01675   0.19994   0.37272
  43        3PX        -0.00370  -0.00029   0.00058   0.06945   0.09204
  44        3PY        -0.00031  -0.00020  -0.00077  -0.00524  -0.02385
  45        3PZ         0.00003   0.00008   0.00103   0.01452   0.03442
  46        4S          0.00058   0.00389  -0.01259   0.07680   0.21112
  47        4PX         0.00102   0.00179  -0.00333   0.00178   0.02228
  48        4PY         0.00010  -0.00005  -0.00009  -0.00549  -0.00682
  49        4PZ         0.00006   0.00011  -0.00106   0.00705   0.01481
  50        5D 0        0.00100   0.00006  -0.00051  -0.00492  -0.00780
  51        5D+1       -0.00065   0.00005  -0.00022   0.00230   0.00432
  52        5D-1       -0.00020  -0.00000  -0.00053  -0.00157  -0.00381
  53        5D+2       -0.00185  -0.00012   0.00078   0.00839   0.01320
  54        5D-2        0.00043  -0.00017   0.00048  -0.00025  -0.00231
  55 4   H  1S         -0.00030  -0.00002  -0.00008   0.02143   0.05631
  56        2S         -0.00077   0.00002  -0.00135   0.01901   0.05325
  57        3S          0.00071   0.00043   0.00136  -0.01162  -0.00929
  58        4PX        -0.00019   0.00011  -0.00078   0.00464   0.00922
  59        4PY        -0.00052   0.00001  -0.00130   0.00349   0.00905
  60        4PZ         0.00045   0.00000   0.00130  -0.00288  -0.00807
  61 5   H  1S          0.00009   0.00003  -0.00007   0.00197   0.00635
  62        2S         -0.00027  -0.00012   0.00052   0.00436   0.00591
  63        3S          0.00027   0.00016   0.00025  -0.00319  -0.00048
  64        4PX        -0.00003  -0.00001   0.00033   0.00032  -0.00005
  65        4PY         0.00003  -0.00001  -0.00032  -0.00033  -0.00087
  66        4PZ        -0.00001  -0.00000  -0.00003  -0.00012  -0.00014
                           6         7         8         9        10
                           O         O         O         O         O
     Eigenvalues --    -0.65602  -0.55968  -0.54515  -0.48166  -0.39134
   1 1   N  1S          0.04239   0.02574  -0.01715   0.02776   0.00570
   2        2S          0.06760   0.04159  -0.02761   0.04479   0.00933
   3        2PX         0.09588  -0.00637  -0.02592  -0.12042   0.02415
   4        2PY        -0.03173   0.20747   0.03500  -0.04232  -0.07152
   5        2PZ         0.05066  -0.01405   0.21520   0.02446   0.03568
   6        3S         -0.20982  -0.12785   0.08530  -0.14234  -0.03247
   7        3PX         0.13338  -0.01238  -0.03861  -0.16343   0.03048
   8        3PY        -0.05016   0.32033   0.05468  -0.06160  -0.10859
   9        3PZ         0.07817  -0.02079   0.33130   0.03757   0.05493
  10        4S         -0.21377  -0.13852   0.09050  -0.16910  -0.01383
  11        4PX         0.07433   0.02085  -0.02750  -0.13059   0.12233
  12        4PY        -0.03268   0.22188   0.03200  -0.05279  -0.07995
  13        4PZ         0.04403  -0.02142   0.23298   0.03276   0.04336
  14        5D 0       -0.00119  -0.00020  -0.00232  -0.00030   0.00166
  15        5D+1       -0.00571  -0.00094   0.00496   0.00359   0.01541
  16        5D-1        0.00128  -0.00154   0.00436   0.00106   0.00127
  17        5D+2        0.00228  -0.00813  -0.00036   0.00240   0.00646
  18        5D-2        0.00611   0.00085  -0.00022  -0.00182  -0.03596
  19 2   N  1S         -0.03182  -0.02150   0.01650  -0.07527  -0.00006
  20        2S         -0.05039  -0.03446   0.02637  -0.11992  -0.00031
  21        2PX         0.00540  -0.00212  -0.02607   0.20868   0.02988
  22        2PY        -0.01875   0.12483   0.02081   0.02305  -0.13933
  23        2PZ         0.01929  -0.00786   0.13259   0.02528   0.05691
  24        3S          0.14668   0.10255  -0.07776   0.34105   0.00168
  25        3PX         0.00966  -0.00846  -0.03601   0.28215   0.04512
  26        3PY        -0.02971   0.19244   0.03316   0.02848  -0.21006
  27        3PZ         0.03097  -0.01235   0.20542   0.03807   0.08549
  28        4S          0.13465   0.08599  -0.08803   0.58385  -0.07796
  29        4PX        -0.00116   0.00605  -0.02004   0.14250   0.06696
  30        4PY        -0.01035   0.10131   0.01840   0.01100  -0.16324
  31        4PZ         0.01136  -0.00419   0.10862   0.02379   0.07158
  32        5D 0       -0.00032   0.00072  -0.00163   0.01270  -0.00076
  33        5D+1       -0.00648   0.00204  -0.03366  -0.00514  -0.00946
  34        5D-1       -0.00135  -0.00007  -0.00652  -0.00177  -0.00172
  35        5D+2       -0.00262   0.01039   0.00476  -0.02326  -0.00766
  36        5D-2        0.00578  -0.03028  -0.00514  -0.00524   0.02100
  37 3   N  1S         -0.04653  -0.02844   0.02331   0.00264  -0.02564
  38        2S         -0.07326  -0.04544   0.03717   0.00415  -0.04093
  39        2PX        -0.15797  -0.03877   0.02958   0.06844  -0.03618
  40        2PY        -0.07377   0.10430   0.02292  -0.00806   0.15454
  41        2PZ         0.06472  -0.00559   0.09939   0.00493  -0.06880
  42        3S          0.20269   0.13265  -0.10920  -0.00753   0.11388
  43        3PX        -0.22829  -0.05117   0.03921   0.10142  -0.05110
  44        3PY        -0.10956   0.16169   0.03610  -0.01421   0.22601
  45        3PZ         0.09814  -0.00603   0.15462   0.00821  -0.09658
  46        4S          0.26067   0.17945  -0.12575  -0.05609   0.28810
  47        4PX        -0.08095  -0.03100   0.02795   0.05817  -0.02054
  48        4PY        -0.05214   0.09263   0.02645  -0.00412   0.20124
  49        4PZ         0.05351   0.00642   0.09004  -0.00110  -0.06846
  50        5D 0        0.01087   0.00173   0.00897  -0.00268  -0.00082
  51        5D+1       -0.00524  -0.00416   0.02665   0.00785  -0.00366
  52        5D-1       -0.01221   0.00665  -0.00155   0.00039   0.01224
  53        5D+2       -0.02017   0.00161   0.00121   0.00653   0.00045
  54        5D-2        0.00296   0.02524   0.00256  -0.00717   0.00215
  55 4   H  1S          0.15890  -0.00757  -0.00620  -0.02731  -0.08931
  56        2S          0.19240  -0.02107  -0.00439  -0.03535  -0.15380
  57        3S          0.03526  -0.00231  -0.00340  -0.01395  -0.05035
  58        4PX         0.00503  -0.00720   0.00385   0.00365  -0.01520
  59        4PY         0.01500   0.00493   0.00253  -0.00221   0.00016
  60        4PZ        -0.01318   0.00203   0.00781   0.00153   0.00560
  61 5   H  1S          0.01752   0.03754  -0.00294  -0.01570   0.11383
  62        2S          0.02342   0.05174  -0.00642  -0.02726   0.17990
  63        3S          0.01168   0.02737  -0.00333  -0.01266   0.14741
  64        4PX        -0.00035   0.00224   0.00018  -0.00063   0.00141
  65        4PY        -0.00340  -0.00215   0.00111   0.00158  -0.00307
  66        4PZ         0.00026  -0.00034   0.00166   0.00023  -0.00100
                          11        12        13        14        15
                           O         O         V         V         V
     Eigenvalues --    -0.32354  -0.21682  -0.03791   0.00697   0.03818
   1 1   N  1S         -0.00596  -0.00975   0.00501   0.00238  -0.00908
   2        2S         -0.00980  -0.01591   0.00759   0.00386  -0.01467
   3        2PX        -0.01901  -0.01566  -0.01353  -0.02646  -0.00994
   4        2PY        -0.00612  -0.07056   0.14851   0.14729  -0.03457
   5        2PZ        -0.02757  -0.01290  -0.15025   0.17530   0.01866
   6        3S          0.03340   0.04560  -0.00387  -0.00997   0.02669
   7        3PX        -0.02808  -0.01947  -0.03688  -0.04392  -0.04459
   8        3PY        -0.00710  -0.10835   0.22814   0.22836  -0.05202
   9        3PZ        -0.04067  -0.02035  -0.23262   0.27110   0.02784
  10        4S          0.01610   0.08497  -0.20963  -0.05860   0.15143
  11        4PX         0.00464  -0.04396   0.13994  -0.05549   0.30312
  12        4PY        -0.01074  -0.13526   0.33899   0.35456  -0.08552
  13        4PZ        -0.03241  -0.02492  -0.32442   0.42473   0.07527
  14        5D 0       -0.00367   0.00242  -0.00114   0.00033   0.01325
  15        5D+1       -0.04834   0.00605   0.02121  -0.00773   0.00171
  16        5D-1       -0.00584   0.00283   0.00206  -0.00229  -0.00533
  17        5D+2        0.00417  -0.01269   0.00793   0.00493  -0.02207
  18        5D-2       -0.01638   0.03315  -0.01408  -0.00223  -0.01220
  19 2   N  1S          0.00016   0.00288  -0.00238  -0.00092   0.01298
  20        2S          0.00028   0.00500  -0.00426  -0.00152   0.02161
  21        2PX         0.02496  -0.00892   0.01143   0.01911   0.03820
  22        2PY        -0.05510   0.13719  -0.14367  -0.11973   0.04043
  23        2PZ        -0.16279   0.02035   0.15193  -0.14885  -0.02219
  24        3S         -0.00234  -0.02218   0.01963   0.00586  -0.09170
  25        3PX         0.03566  -0.01318   0.01320   0.02653   0.05596
  26        3PY        -0.08229   0.20172  -0.20721  -0.17034   0.06133
  27        3PZ        -0.24283   0.02912   0.21721  -0.21071  -0.03396
  28        4S         -0.00030   0.03444  -0.09999   0.00380  -0.27822
  29        4PX         0.03322  -0.04303   0.07830   0.05420   0.13830
  30        4PY        -0.07708   0.24389  -0.32342  -0.31085   0.12170
  31        4PZ        -0.23194   0.03884   0.35867  -0.38876  -0.05688
  32        5D 0        0.00079   0.00099  -0.00102   0.00012  -0.00118
  33        5D+1        0.01937  -0.00072   0.00542  -0.00973  -0.00030
  34        5D-1        0.00401  -0.00007   0.00110  -0.00222  -0.00104
  35        5D+2       -0.00361   0.00062   0.00416   0.00382   0.00199
  36        5D-2        0.00515  -0.00712  -0.00514  -0.00836   0.00161
  37 3   N  1S          0.02519   0.03284   0.02286   0.00673   0.03428
  38        2S          0.04048   0.05287   0.03630   0.01071   0.05413
  39        2PX         0.02474   0.02746   0.07917   0.03058  -0.00534
  40        2PY         0.06920  -0.10419  -0.05981  -0.11882   0.12228
  41        2PZ         0.20638  -0.02655   0.03828  -0.12009  -0.07417
  42        3S         -0.12299  -0.16373  -0.09181  -0.02747  -0.14671
  43        3PX         0.03303   0.02888   0.11372   0.04160  -0.05185
  44        3PY         0.10282  -0.15122  -0.08363  -0.16748   0.15607
  45        3PZ         0.30241  -0.04460   0.04498  -0.16667  -0.09361
  46        4S         -0.15651  -0.29869  -0.25892  -0.12223  -0.55814
  47        4PX         0.04236   0.05348   0.24860   0.08372   0.25879
  48        4PY         0.12115  -0.19070  -0.11502  -0.30786   0.39598
  49        4PZ         0.33353  -0.03991   0.08973  -0.32868  -0.24022
  50        5D 0        0.01246  -0.00958  -0.00386  -0.00692   0.00001
  51        5D+1        0.01453  -0.00207  -0.01687   0.01699  -0.00533
  52        5D-1       -0.00437  -0.00220  -0.00604   0.00068   0.00116
  53        5D+2        0.00356  -0.00405   0.00083  -0.00592   0.00447
  54        5D-2        0.00313  -0.02443   0.01489   0.00894   0.01014
  55 4   H  1S          0.03066   0.00075   0.08769  -0.00103   0.04516
  56        2S          0.04110  -0.00850   0.18931  -0.00810  -0.04600
  57        3S          0.01822   0.02687   0.33198   0.10082   1.55923
  58        4PX         0.00588   0.00380  -0.00183   0.00326  -0.01927
  59        4PY         0.01036  -0.00834  -0.00476  -0.01709  -0.01604
  60        4PZ         0.01662  -0.00276   0.00203  -0.01569   0.01760
  61 5   H  1S          0.06550   0.19689   0.04024   0.03594  -0.03731
  62        2S          0.09942   0.37530   0.07844   0.06363  -0.07985
  63        3S          0.09550   0.46586   0.14989   0.23602  -0.24569
  64        4PX        -0.00094  -0.00431  -0.00339  -0.00178  -0.00103
  65        4PY         0.00232   0.00415   0.00777   0.00788  -0.00461
  66        4PZ         0.00487   0.00257   0.00521  -0.00217  -0.00110
                          16        17        18        19        20
                           V         V         V         V         V
     Eigenvalues --     0.22248   0.25944   0.36426   0.41923   0.45543
   1 1   N  1S         -0.06670   0.02563  -0.00093   0.00850   0.04734
   2        2S         -0.10842   0.04309   0.00078   0.01895   0.08954
   3        2PX        -0.07599   0.03665   0.03691   0.14870  -0.06180
   4        2PY         0.03584  -0.05215  -0.04437   0.04796   0.03371
   5        2PZ        -0.02791  -0.00165   0.04971  -0.02311  -0.02255
   6        3S          0.26337  -0.15442  -0.07452  -0.22401  -0.64720
   7        3PX        -0.12519   0.03212   0.10066   0.23813  -0.05739
   8        3PY         0.05710  -0.09314  -0.08233   0.09660   0.11324
   9        3PZ        -0.03729  -0.00856   0.08211  -0.07791  -0.05741
  10        4S          2.56720  -0.76277   0.25329   1.26175  -1.88481
  11        4PX        -0.44024   0.49908   0.01251   4.91187  -1.74687
  12        4PY         0.23557  -0.06034  -0.25125   0.55424  -0.43836
  13        4PZ        -0.16833   0.08730   0.28415   0.25921   0.05744
  14        5D 0        0.03128  -0.00894   0.00646   0.00805   0.00587
  15        5D+1       -0.00878  -0.00179   0.01894  -0.00516  -0.00964
  16        5D-1        0.00131  -0.00008  -0.02115   0.00923  -0.00037
  17        5D+2       -0.05313   0.01331  -0.01070  -0.01379  -0.01248
  18        5D-2       -0.01353  -0.00996  -0.01582   0.00630   0.00873
  19 2   N  1S          0.04356  -0.00609   0.01278   0.04602   0.00232
  20        2S          0.07388  -0.00950   0.02258   0.07857   0.01487
  21        2PX         0.14586  -0.03422   0.03222   0.02201   0.06508
  22        2PY        -0.00426  -0.00360   0.00339  -0.00779   0.00448
  23        2PZ         0.01907  -0.00033  -0.00101  -0.00296   0.01008
  24        3S         -0.29673   0.01620  -0.10106  -0.25974  -0.32236
  25        3PX         0.21762  -0.03252   0.05979   0.04279   0.33150
  26        3PY        -0.00201  -0.03300  -0.03738  -0.02236   0.07560
  27        3PZ         0.02581   0.00167   0.04010  -0.02211   0.01797
  28        4S         -0.56640  -0.06318  -0.08593  -4.75655   2.86029
  29        4PX         0.57952  -0.11726   0.10378   2.62886  -2.16269
  30        4PY        -0.04250   0.11526   0.21986   0.64662  -0.46915
  31        4PZ         0.08951  -0.02942  -0.20523   0.01737  -0.03541
  32        5D 0       -0.00101  -0.00124  -0.00088   0.00248   0.01982
  33        5D+1        0.00343   0.00083  -0.00988   0.00767   0.00742
  34        5D-1        0.00147   0.00070  -0.00475   0.00228   0.00005
  35        5D+2        0.00542  -0.00575  -0.00440  -0.00012  -0.02548
  36        5D-2       -0.00544   0.00747   0.00960  -0.00848  -0.02922
  37 3   N  1S          0.04531  -0.01648   0.02481  -0.01581   0.01111
  38        2S          0.07509  -0.02737   0.04419  -0.01951   0.02461
  39        2PX        -0.20774   0.04225   0.03443  -0.05526  -0.08838
  40        2PY        -0.02208   0.03070   0.07207  -0.04151  -0.04070
  41        2PZ         0.00765   0.01731  -0.09067   0.00234   0.02769
  42        3S         -0.23634   0.09925  -0.18168  -0.16010  -0.20375
  43        3PX        -0.30927   0.03594   0.01924  -0.26701  -0.39126
  44        3PY        -0.01390   0.07655   0.13646  -0.08554  -0.10610
  45        3PZ         0.00627   0.03189  -0.19706  -0.00243   0.07445
  46        4S         -1.21654   0.39406  -0.48251   4.18367  -0.50338
  47        4PX        -1.14864   0.64204   0.62446   2.46384   0.34023
  48        4PY        -0.13480  -0.13376   0.74303  -0.50811   0.25423
  49        4PZ        -0.05817  -0.01151  -0.59870   0.62890  -0.17536
  50        5D 0       -0.00583   0.01665  -0.00273   0.00843   0.01386
  51        5D+1       -0.00655   0.00554  -0.00682  -0.01467  -0.00362
  52        5D-1        0.00258  -0.00336  -0.01350  -0.00423   0.00636
  53        5D+2        0.01789  -0.00136  -0.01071  -0.02750  -0.03052
  54        5D-2        0.01630   0.00373   0.00604   0.01032   0.00238
  55 4   H  1S          0.01618  -0.00683   0.12873  -0.02850  -0.01594
  56        2S          0.15788   0.08767   1.96355  -0.82793  -0.02164
  57        3S         -0.59233  -0.19797  -0.90808   0.36148   0.05653
  58        4PX        -0.02778  -0.00084   0.03263  -0.01030   0.03410
  59        4PY         0.01977   0.02468  -0.00611  -0.02932   0.00463
  60        4PZ        -0.01363   0.01133  -0.00021   0.01926  -0.00975
  61 5   H  1S         -0.03279  -0.11919   0.01838  -0.00013   0.00719
  62        2S         -0.33940  -1.23063   0.13218   0.12399   0.11630
  63        3S          0.42323   1.70133  -0.03284  -0.00779  -0.15250
  64        4PX        -0.00979   0.00864   0.02665   0.04544   0.03171
  65        4PY        -0.00370   0.00290   0.02644  -0.00145  -0.00063
  66        4PZ        -0.00328  -0.00175  -0.02643   0.02475  -0.00411
                          21        22        23        24        25
                           V         V         V         V         V
     Eigenvalues --     0.50107   0.52905   0.60154   0.64571   0.67547
   1 1   N  1S         -0.00612  -0.00209  -0.01487   0.03187   0.03987
   2        2S         -0.01172  -0.00373  -0.02914   0.06201   0.07707
   3        2PX        -0.02155   0.00405  -0.03606  -0.02406  -0.09748
   4        2PY        -0.04149  -0.10812  -0.00805  -0.07330   0.07394
   5        2PZ        -0.10786   0.02678   0.02932  -0.00818   0.01559
   6        3S          0.07589   0.02394   0.19527  -0.39004  -0.48784
   7        3PX        -0.03023   0.01711  -0.09279  -0.25697  -0.45102
   8        3PY        -0.15485  -0.45569  -0.02888  -0.25669   0.26458
   9        3PZ        -0.43792   0.12425   0.11610  -0.04367   0.03825
  10        4S         -0.33837  -0.17316  -0.72724   0.75379   0.48565
  11        4PX        -0.28845   0.28544   1.12880   0.15209   1.25451
  12        4PY         0.15889   0.68067   0.25223   0.37593  -0.62286
  13        4PZ         0.51230  -0.19519  -0.33133   0.15179  -0.14357
  14        5D 0        0.00817   0.00884   0.01164   0.00132  -0.00632
  15        5D+1       -0.00280   0.00152   0.06661   0.01468   0.01671
  16        5D-1       -0.00703   0.00840   0.02083  -0.00673   0.00254
  17        5D+2        0.00004   0.00746  -0.01400   0.00358   0.01316
  18        5D-2       -0.00305  -0.01860   0.00352   0.03609  -0.04970
  19 2   N  1S         -0.00715   0.00173  -0.01445   0.04700   0.04641
  20        2S         -0.01261   0.00328  -0.02744   0.09073   0.09109
  21        2PX         0.01700   0.03316   0.01960  -0.12790  -0.11337
  22        2PY        -0.03222  -0.15442   0.02990   0.09053  -0.12644
  23        2PZ        -0.12570   0.04667   0.13222   0.01811  -0.00233
  24        3S          0.04711  -0.03284   0.15894  -0.65568  -0.70665
  25        3PX         0.06447   0.11954   0.08903  -0.41487  -0.29010
  26        3PY        -0.11696  -0.54962   0.11564   0.30946  -0.43209
  27        3PZ        -0.45513   0.16118   0.46148   0.07243  -0.00661
  28        4S          0.36637  -0.19302  -0.75435   0.42608   0.00459
  29        4PX        -0.34927  -0.11323   0.04470   0.39918   0.17090
  30        4PY         0.05790   0.63702  -0.16136  -0.61960   0.92034
  31        4PZ         0.49990  -0.16961  -0.61158  -0.17619   0.04461
  32        5D 0       -0.00009  -0.00025  -0.00232   0.00293   0.01212
  33        5D+1        0.03400  -0.00951  -0.02606  -0.00500  -0.00417
  34        5D-1        0.00766  -0.00164  -0.00080  -0.00345   0.00166
  35        5D+2       -0.00414  -0.01348   0.00313  -0.00556  -0.02643
  36        5D-2        0.01054   0.03759  -0.00522  -0.00888   0.00254
  37 3   N  1S         -0.00537   0.00475  -0.01384  -0.01144  -0.00840
  38        2S         -0.01031   0.00940  -0.02455  -0.02219  -0.01522
  39        2PX        -0.01597  -0.00837  -0.05085   0.05447   0.03114
  40        2PY        -0.02567  -0.08317   0.00126  -0.12717   0.07407
  41        2PZ        -0.13108   0.03508  -0.16494   0.00060  -0.03827
  42        3S          0.06310  -0.07531   0.07304   0.22351   0.11195
  43        3PX        -0.01445  -0.00434  -0.11493   0.14706   0.07616
  44        3PY        -0.11314  -0.27921  -0.01402  -0.45751   0.24368
  45        3PZ        -0.45324   0.10917  -0.57897  -0.04090  -0.12987
  46        4S         -0.06122   0.31786   1.32356  -0.76845   0.72405
  47        4PX        -0.13815   0.11830   0.53123  -0.35315  -0.11489
  48        4PY         0.09145   0.15348  -0.38619   0.92115  -0.37001
  49        4PZ         0.48449   0.00980   1.33127  -0.21406   0.40676
  50        5D 0       -0.01244  -0.00018  -0.01489   0.01645  -0.00157
  51        5D+1       -0.02621   0.00860  -0.03673   0.00359  -0.01675
  52        5D-1       -0.00264   0.00448   0.00084   0.00013  -0.00173
  53        5D+2        0.01173  -0.00025   0.02253  -0.00818  -0.00467
  54        5D-2       -0.00099  -0.01848   0.01190  -0.03131   0.02610
  55 4   H  1S          0.00831  -0.02506   0.00290  -0.00888   0.01403
  56        2S         -0.00482  -0.32146  -0.55815   0.33856  -0.10352
  57        3S         -0.16648   0.51039  -0.03786   0.31676  -0.36556
  58        4PX        -0.02163  -0.01652  -0.10018   0.03079  -0.03715
  59        4PY        -0.01373   0.01468  -0.01865   0.07645  -0.03462
  60        4PZ         0.00662  -0.02072   0.02779  -0.03218   0.01271
  61 5   H  1S          0.00331   0.01690  -0.00948   0.01456   0.01725
  62        2S         -0.04571   0.10587  -0.09463  -0.14575   0.02658
  63        3S         -0.04249  -0.35901   0.14161  -0.19936   0.08960
  64        4PX         0.00415   0.02456  -0.00254   0.00709  -0.06822
  65        4PY         0.00618  -0.00024  -0.00953   0.01698  -0.01140
  66        4PZ         0.02674   0.00713   0.08485  -0.01497   0.02035
                          26        27        28        29        30
                           V         V         V         V         V
     Eigenvalues --     0.68805   0.74174   0.77747   0.91176   1.02011
   1 1   N  1S         -0.00121  -0.02176  -0.04535  -0.00110   0.00311
   2        2S         -0.00229  -0.04312  -0.08871  -0.00139   0.00300
   3        2PX        -0.02860  -0.00228  -0.13497   0.26641  -0.18066
   4        2PY        -0.07491   0.12582  -0.03756   0.01759   0.01682
   5        2PZ         0.16887   0.08305  -0.04974   0.00386  -0.02671
   6        3S          0.00891   0.32884   0.69261  -0.08313   0.03223
   7        3PX        -0.14705  -0.04947  -0.52646   0.19852  -0.45646
   8        3PY        -0.26268   0.43793  -0.13721   0.03310   0.09108
   9        3PZ         0.57058   0.28017  -0.17517  -0.04133  -0.10084
  10        4S         -0.43159  -0.28154  -1.78214   1.50888   0.80519
  11        4PX         2.00138  -0.36660   2.91973   3.39412   9.85447
  12        4PY         0.94162  -1.55843   0.35319   0.39177   0.54504
  13        4PZ        -1.46856  -0.68422   0.81104   0.28725   0.72115
  14        5D 0        0.00542  -0.01030   0.01097   0.00395  -0.00894
  15        5D+1       -0.01741  -0.00295  -0.00222   0.05091   0.02744
  16        5D-1        0.02020  -0.02165  -0.01842   0.00280   0.03957
  17        5D+2       -0.01250   0.00299  -0.02470   0.01931   0.01985
  18        5D-2       -0.01003   0.01302  -0.02178  -0.10353  -0.03806
  19 2   N  1S          0.00533  -0.01384  -0.00654   0.03788  -0.04341
  20        2S          0.01021  -0.02829  -0.01497   0.06863  -0.08681
  21        2PX        -0.01099   0.04405  -0.02560   0.22501  -0.05117
  22        2PY         0.04494  -0.03616   0.00743   0.06654   0.01418
  23        2PZ        -0.12917  -0.04794   0.00940  -0.00277  -0.00862
  24        3S         -0.09598   0.23091   0.05774  -0.35914   0.69337
  25        3PX         0.00975   0.07792  -0.12271   0.64553   0.17144
  26        3PY         0.16724  -0.16576   0.00586   0.14989   0.05348
  27        3PZ        -0.45743  -0.16653   0.05195   0.01319   0.00045
  28        4S         -1.34089   0.27440  -1.57153  -3.12303  -8.87833
  29        4PX         0.44346  -0.27833   0.46880   0.71556   3.16758
  30        4PY        -0.33952   0.71190   0.12440   0.29120   1.07058
  31        4PZ         1.18070   0.47342  -0.33840  -0.13369  -0.18738
  32        5D 0        0.00348  -0.01912  -0.01430  -0.02721   0.03251
  33        5D+1        0.00340   0.00112  -0.00662  -0.02260  -0.03072
  34        5D-1        0.00572  -0.00474  -0.00795  -0.00527  -0.00490
  35        5D+2       -0.00490   0.01638   0.01980   0.02633  -0.08731
  36        5D-2       -0.00216   0.01401   0.01715   0.06254   0.02983
  37 3   N  1S         -0.00413  -0.02722  -0.04947  -0.05814   0.06195
  38        2S         -0.00620  -0.05381  -0.09747  -0.10937   0.12411
  39        2PX        -0.01375  -0.04416  -0.17927   0.18308   0.01623
  40        2PY         0.04070  -0.14353   0.02802  -0.01244  -0.04541
  41        2PZ        -0.02565  -0.01537   0.06262   0.04091   0.01466
  42        3S         -0.05357   0.46651   0.75117   0.70366  -1.10951
  43        3PX        -0.07172  -0.04735  -0.37998   0.51385   0.21506
  44        3PY         0.12843  -0.50018   0.17132   0.01790  -0.22572
  45        3PZ        -0.05907  -0.13811   0.18578   0.07050   0.18807
  46        4S          1.88030  -1.42960   1.09401   1.39051   8.90548
  47        4PX         0.87221   0.05317   2.09256   0.25289   3.17019
  48        4PY        -0.79237   1.77003  -0.06102  -0.25437  -0.39089
  49        4PZ         0.89460  -0.03529  -0.66496   0.07540   0.63901
  50        5D 0       -0.00404   0.00056  -0.05309   0.02339  -0.02346
  51        5D+1       -0.01311   0.02073   0.03426  -0.03386  -0.05715
  52        5D-1        0.00179   0.00098   0.01406   0.01894   0.01694
  53        5D+2       -0.00548   0.03781   0.07007  -0.03085   0.04265
  54        5D-2        0.02118  -0.03416  -0.00004   0.07190   0.09553
  55 4   H  1S          0.03588  -0.02926   0.00132   0.04715   0.08916
  56        2S         -0.53116   0.62636   0.44149  -0.15219  -0.83940
  57        3S          0.09979   0.53768   0.73428   0.10606  -0.07746
  58        4PX        -0.15213   0.08555  -0.01332  -0.08046  -0.31406
  59        4PY        -0.03541   0.14787   0.08835   0.04201  -0.07966
  60        4PZ        -0.00112  -0.05177  -0.15696  -0.08334   0.06175
  61 5   H  1S         -0.00354   0.01694   0.00772   0.03030   0.02068
  62        2S          0.11791  -0.36912   0.28310   0.06228  -0.23701
  63        3S          0.03405   0.02270   0.07776  -0.03216   0.10320
  64        4PX         0.02065  -0.04117   0.01135  -0.09492   0.16959
  65        4PY        -0.00444   0.02447   0.10767   0.05256  -0.03372
  66        4PZ         0.06733  -0.03187  -0.03133   0.03876   0.11344
                          31        32        33        34        35
                           V         V         V         V         V
     Eigenvalues --     1.12184   1.21934   1.36378   1.40462   1.43895
   1 1   N  1S          0.07948  -0.00861  -0.00539  -0.00093  -0.00224
   2        2S          0.15325  -0.01679  -0.01144  -0.00244  -0.00401
   3        2PX        -0.10037  -0.00525  -0.06631  -0.02996  -0.03199
   4        2PY        -0.05539  -0.00468  -0.03138  -0.00769  -0.01206
   5        2PZ         0.00599  -0.00080  -0.00509   0.00827  -0.00565
   6        3S         -1.35055   0.16861   0.05673   0.00063   0.02919
   7        3PX         0.02180  -0.02064  -0.25396  -0.17620  -0.10365
   8        3PY        -0.05577  -0.02844  -0.07152  -0.04872  -0.00089
   9        3PZ         0.00376  -0.02863  -0.00958   0.02471   0.06033
  10        4S          7.20443  -1.12974   0.93355   0.65028   0.50564
  11        4PX         0.90839   0.70834   4.05503   4.56735   1.90861
  12        4PY         0.63781   0.16687   0.62259   0.77325   0.13331
  13        4PZ        -0.09987   0.25046   0.22128  -0.00770  -0.20605
  14        5D 0       -0.11065   0.13354  -0.00035   0.01565  -0.03117
  15        5D+1        0.02453   0.04500   0.00968  -0.02346  -0.40843
  16        5D-1       -0.01112   0.00005  -0.05661   0.09645  -0.06192
  17        5D+2        0.20691   0.01289   0.01542   0.00927   0.04652
  18        5D-2        0.04667   0.01784   0.01785   0.03897  -0.19653
  19 2   N  1S         -0.07101   0.00529  -0.01351  -0.00594  -0.00394
  20        2S         -0.13590   0.00965  -0.02826  -0.01326  -0.00899
  21        2PX        -0.13137   0.00933   0.00333   0.02602  -0.00086
  22        2PY        -0.02813  -0.00257   0.01269   0.00456   0.04253
  23        2PZ        -0.00103  -0.01468  -0.00676   0.00194   0.06812
  24        3S          1.14966  -0.09403   0.26341   0.14953   0.08823
  25        3PX         0.04099  -0.01248   0.07752   0.13878   0.02333
  26        3PY         0.01203  -0.00552   0.03628   0.02777   0.06970
  27        3PZ         0.00027  -0.01972  -0.00642   0.00051   0.11235
  28        4S         -4.94067  -0.02436  -3.93066  -4.14144  -1.77763
  29        4PX         2.37641  -0.05764   1.48461   1.50779   0.64921
  30        4PY         0.32649  -0.02596   0.28375   0.30000   0.18892
  31        4PZ         0.05156  -0.07713  -0.02461   0.04517   0.08762
  32        5D 0        0.08753   0.01724   0.01138   0.01562  -0.00645
  33        5D+1       -0.00288  -0.03666  -0.01416   0.00341   0.25595
  34        5D-1       -0.00159  -0.01159  -0.02450   0.03870   0.06083
  35        5D+2       -0.12829   0.02821  -0.01922  -0.00415  -0.07645
  36        5D-2       -0.06273   0.00080  -0.00184  -0.01795   0.13202
  37 3   N  1S         -0.02942   0.01155   0.00208   0.00316   0.00941
  38        2S         -0.05728   0.02498   0.00230   0.00781   0.02114
  39        2PX         0.00426  -0.02406  -0.04044   0.00789  -0.01966
  40        2PY         0.00915   0.02098  -0.00326  -0.00199  -0.01589
  41        2PZ         0.01254  -0.00609   0.00038  -0.03791  -0.07911
  42        3S          0.60914  -0.27974  -0.02262  -0.17041  -0.23562
  43        3PX        -0.11278   0.00779  -0.06625   0.05022   0.09794
  44        3PY         0.06616  -0.04672  -0.03309   0.05325  -0.11695
  45        3PZ        -0.06322   0.03725   0.07281  -0.07090  -0.10693
  46        4S         -2.61939   1.48116   2.70068   3.67330   1.72564
  47        4PX        -1.10485   0.54846   1.26135   1.40441   0.14889
  48        4PY        -0.00296  -0.30195  -0.15616  -0.74528   0.09531
  49        4PZ        -0.20501  -0.14709   0.05797   0.69104   0.38013
  50        5D 0        0.03518   0.24898   0.00813  -0.01831   0.13164
  51        5D+1       -0.02117  -0.08826  -0.01352   0.01029   0.36000
  52        5D-1        0.00169  -0.03727  -0.09732   0.03949  -0.06871
  53        5D+2       -0.01657   0.16807  -0.02725  -0.02880   0.02038
  54        5D-2        0.03915   0.00535  -0.06681  -0.09503   0.18524
  55 4   H  1S         -0.01516   0.04047   0.10161  -0.05834  -0.06135
  56        2S          0.40583  -0.28234  -0.17147  -0.47374  -0.19459
  57        3S         -0.02382   0.03064   0.12033  -0.00668  -0.02845
  58        4PX        -0.05285  -0.07242   0.35830   0.02201   0.26723
  59        4PY         0.12403   0.48526  -0.22029   0.00501  -0.16804
  60        4PZ        -0.10505   0.59559   0.13090   0.17555   0.08668
  61 5   H  1S          0.00912   0.05880  -0.00047  -0.00214   0.02698
  62        2S          0.20571   0.10072  -0.03795   0.01224  -0.09775
  63        3S         -0.15507  -0.13782   0.09634   0.12528  -0.12596
  64        4PX        -0.15908  -0.25660  -0.60849  -0.10612  -0.10787
  65        4PY         0.13463   0.22823  -0.56536  -0.09817   0.37604
  66        4PZ        -0.01769   0.10188   0.20532  -0.94550   0.02378
                          36        37        38        39        40
                           V         V         V         V         V
     Eigenvalues --     1.50601   1.64904   1.66105   1.70673   1.83590
   1 1   N  1S         -0.00994  -0.00112   0.00016   0.00027   0.00475
   2        2S         -0.02032  -0.00165   0.00006  -0.00059   0.01074
   3        2PX         0.01775  -0.03954   0.00277   0.06184  -0.00348
   4        2PY        -0.01841  -0.02821  -0.01594   0.01883   0.04079
   5        2PZ        -0.00816   0.03122  -0.01509  -0.01212  -0.04047
   6        3S          0.29614   0.01064  -0.00639   0.05328  -0.09524
   7        3PX         0.20349  -0.03506  -0.03372   0.02262   0.03588
   8        3PY         0.05428  -0.04546  -0.03051   0.01340   0.02830
   9        3PZ        -0.01641   0.04626  -0.02340  -0.01555  -0.01214
  10        4S         -3.77381   0.31338   0.29242  -1.11391   0.42316
  11        4PX        -3.81167   0.80917   0.90098   1.43804  -0.32462
  12        4PY        -0.81383   0.33793   0.11784  -0.12539  -0.08130
  13        4PZ        -0.04097  -0.24824   0.08319   0.42353  -0.22283
  14        5D 0       -0.02239  -0.11352  -0.59965  -0.06421   0.02135
  15        5D+1        0.04559   0.20001   0.02248  -0.24421   0.25057
  16        5D-1        0.05407  -0.58279   0.17403  -0.35824  -0.04093
  17        5D+2       -0.06777  -0.11102  -0.36033  -0.05844   0.03562
  18        5D-2       -0.30887  -0.08658   0.00964   0.24027  -0.09015
  19 2   N  1S          0.00892  -0.00371  -0.00053   0.00689   0.00077
  20        2S          0.01799  -0.00872  -0.00129   0.01457   0.00127
  21        2PX        -0.05322  -0.00324   0.01344   0.02823  -0.00086
  22        2PY         0.04069   0.00980  -0.01959  -0.03289   0.02735
  23        2PZ        -0.00430  -0.01654  -0.00778   0.05451  -0.05067
  24        3S         -0.25089   0.07408   0.02429  -0.11695  -0.00533
  25        3PX        -0.25453  -0.02158   0.04311   0.09260  -0.00203
  26        3PY         0.03315   0.01042  -0.02904  -0.04328   0.03294
  27        3PZ        -0.01121  -0.02682  -0.01212   0.08584  -0.07183
  28        4S          4.87464  -0.84031  -0.87234  -0.64343   0.12563
  29        4PX        -1.89698   0.34427   0.31867   0.12503  -0.02520
  30        4PY        -0.38154   0.00072   0.09183   0.17232  -0.04144
  31        4PZ        -0.03463   0.10565  -0.01490  -0.17975   0.15136
  32        5D 0       -0.06223  -0.09392  -0.45551  -0.04828   0.00366
  33        5D+1       -0.03469   0.03970  -0.06643   0.29825  -0.23121
  34        5D-1        0.01328  -0.42831   0.10757  -0.26875  -0.28231
  35        5D+2       -0.07071  -0.08406  -0.20101   0.06868  -0.05964
  36        5D-2        0.16730   0.00235  -0.20684  -0.16776   0.17065
  37 3   N  1S          0.03007   0.02052  -0.00193  -0.00820  -0.00511
  38        2S          0.06164   0.04342  -0.00365  -0.01395  -0.00718
  39        2PX        -0.03930   0.00176   0.00054   0.03430  -0.07190
  40        2PY        -0.04348   0.02144   0.00455  -0.01978  -0.08531
  41        2PZ         0.00590  -0.01836  -0.00007   0.01612   0.10589
  42        3S         -0.55232  -0.34592   0.00060  -0.01919  -0.03077
  43        3PX        -0.12861   0.12620   0.02759   0.00725  -0.06303
  44        3PY        -0.12824   0.14879  -0.05798  -0.05142  -0.17197
  45        3PZ        -0.02743  -0.13988   0.02388   0.07948   0.07097
  46        4S         -0.82262   0.95140   0.66775   1.52177  -0.22881
  47        4PX         0.09674  -0.14395   0.16642   1.31303  -0.34104
  48        4PY         0.48272  -0.47523   0.00161   0.11660   0.43005
  49        4PZ         0.05914   0.47536  -0.03444  -0.19713   0.02573
  50        5D 0       -0.03037  -0.08041  -0.07107   0.04002  -0.02330
  51        5D+1       -0.08659  -0.10538   0.05624   0.10777   0.06809
  52        5D-1        0.08370  -0.17125   0.01906   0.11865   0.29391
  53        5D+2        0.02582  -0.00693  -0.06274   0.00639   0.08437
  54        5D-2        0.29153   0.11255  -0.01919  -0.14094  -0.11408
  55 4   H  1S          0.11460   0.16521  -0.02652  -0.34418  -0.73048
  56        2S         -0.23084  -0.70523  -0.00207   0.70959   1.02350
  57        3S          0.14197   0.11905  -0.00201  -0.21222  -0.46278
  58        4PX        -0.38915   0.34527   0.00720  -0.61217   0.10669
  59        4PY         0.07165   0.17825   0.05299   0.06848  -0.41725
  60        4PZ        -0.33051  -0.08390   0.19689  -0.05283   0.17045
  61 5   H  1S         -0.00968   0.00712  -0.01553  -0.00589  -0.28550
  62        2S         -0.03605  -0.01230   0.03127   0.03170   0.22990
  63        3S         -0.11581  -0.02278  -0.08267   0.09455  -0.21551
  64        4PX        -0.53597   0.11183  -0.07643  -0.19147  -0.16122
  65        4PY         0.00902   0.12266   0.11116  -0.19811   0.32153
  66        4PZ        -0.14772  -0.15566   0.06084   0.01830   0.06202
                          41        42        43        44        45
                           V         V         V         V         V
     Eigenvalues --     1.86265   2.07364   2.10034   2.16967   2.23678
   1 1   N  1S         -0.00937  -0.00093   0.00385   0.00127   0.00776
   2        2S         -0.01895  -0.00283   0.00877   0.00249   0.02143
   3        2PX        -0.01014  -0.00042  -0.00190  -0.01730   0.03673
   4        2PY        -0.01331  -0.05058   0.01498   0.07278   0.13770
   5        2PZ         0.00113  -0.02778   0.01020   0.10378  -0.07890
   6        3S          0.22547   0.01865  -0.05446  -0.07380  -0.18793
   7        3PX        -0.09918  -0.01722   0.03494   0.00554   0.04981
   8        3PY        -0.00882  -0.01386  -0.01861   0.01933  -0.00250
   9        3PZ         0.00977  -0.02254   0.01913   0.01117   0.00074
  10        4S         -0.95072   0.06911   0.03068   0.52001  -0.46212
  11        4PX         3.67193  -0.53389   0.70477  -0.88893   1.32088
  12        4PY        -0.10039  -0.10174   0.21622   0.35091   0.47840
  13        4PZ        -0.01428  -0.03760   0.13803   0.34929  -0.00918
  14        5D 0        0.07635  -0.38591  -0.18635  -0.04441  -0.17269
  15        5D+1        0.02894   0.00003   0.05008  -0.07054  -0.09024
  16        5D-1        0.04532   0.17880  -0.50189   0.06633   0.20305
  17        5D+2       -0.11991  -0.23667  -0.11898   0.06729   0.13023
  18        5D-2        0.34262  -0.07822  -0.05080  -0.08877   0.09650
  19 2   N  1S          0.00209  -0.00205   0.00050   0.00066   0.00941
  20        2S          0.00311  -0.00436   0.00068   0.00222   0.02346
  21        2PX         0.04351  -0.00749   0.00930  -0.00982  -0.00125
  22        2PY        -0.04548  -0.00964   0.01674   0.01214   0.01980
  23        2PZ        -0.00743  -0.00324   0.00079   0.02799  -0.00273
  24        3S         -0.01724   0.03033  -0.00037  -0.01345  -0.20083
  25        3PX         0.08572  -0.03557   0.01750   0.00820   0.19237
  26        3PY        -0.07525  -0.02004   0.01368   0.03897   0.06227
  27        3PZ        -0.01118  -0.00939   0.01019   0.03690  -0.00264
  28        4S         -2.50073   0.40131  -0.60690   0.45004  -0.81724
  29        4PX         0.78671  -0.13632   0.23224  -0.09998   0.20616
  30        4PY         0.48117   0.00733  -0.02017  -0.25281  -0.16275
  31        4PZ         0.04269   0.02118  -0.04202  -0.22956   0.06273
  32        5D 0        0.15109   0.62684   0.25640  -0.00029  -0.02775
  33        5D+1       -0.06109  -0.02685  -0.08428   0.41663  -0.17360
  34        5D-1        0.08628  -0.29665   0.68985   0.00718  -0.21334
  35        5D+2        0.18855   0.37668   0.10646  -0.14123  -0.01408
  36        5D-2       -0.21942   0.01423   0.13387   0.30713   0.45502
  37 3   N  1S          0.03457  -0.00823   0.00542  -0.00584   0.02396
  38        2S          0.07286  -0.01974   0.01708  -0.01757   0.05655
  39        2PX         0.03253  -0.00390  -0.01690   0.02070   0.03060
  40        2PY         0.07013  -0.01530  -0.06220  -0.02618   0.05683
  41        2PZ         0.00098  -0.03431   0.05307  -0.03145  -0.01718
  42        3S         -0.75359   0.19083  -0.20135   0.24315  -0.53684
  43        3PX         0.30926  -0.06396   0.10057  -0.13497   0.02500
  44        3PY        -0.06974  -0.09939   0.16929  -0.06494   0.22667
  45        3PZ        -0.09479   0.06902  -0.10917   0.12460  -0.18285
  46        4S          4.16217  -0.47735   0.43929  -0.93124   1.38822
  47        4PX         1.18357  -0.26949   0.40837  -0.40485   0.98293
  48        4PY         0.43933  -0.01245  -0.17306  -0.34496  -0.36416
  49        4PZ         0.70689  -0.08972  -0.14988  -0.39940   0.14478
  50        5D 0       -0.03259  -0.18686  -0.22335  -0.38580  -0.25000
  51        5D+1        0.00514   0.15165  -0.01017  -0.33992   0.30211
  52        5D-1       -0.19661   0.10001   0.01068   0.02843  -0.44832
  53        5D+2       -0.04654  -0.20618   0.01749  -0.20343   0.09897
  54        5D-2       -0.09877   0.22063  -0.03786  -0.24950  -0.42414
  55 4   H  1S          0.11033   0.20179  -0.57147   0.31570  -0.25838
  56        2S         -0.51410  -0.35333   0.96991  -0.51109   0.50343
  57        3S          0.23715   0.08603  -0.31188   0.19267  -0.10442
  58        4PX         0.05114  -0.04422   0.07833  -0.07989  -0.11439
[...]
     5   1    -0.48   0.84   0.20     0.76   0.29   0.35     0.36   0.50  -0.31
                     4                      5                      6
                     A                      A                      A
 Frequencies --   569.8711               644.3300              1172.9399
 Red. masses --     4.9571                 2.7650                 1.8250
 Frc consts  --     0.9485                 0.6763                 1.4793
 IR Inten    --     7.3408                22.2050               137.0351
  Atom  AN      X      Y      Z        X      Y      Z        X      Y      Z
     1   7     0.02  -0.14   0.42    -0.06   0.28   0.14     0.06  -0.05   0.07
     2   7    -0.01   0.07  -0.23     0.02  -0.13  -0.08     0.08   0.01  -0.01
     3   7     0.05   0.05  -0.21    -0.01  -0.10  -0.02    -0.20   0.06  -0.07
     4   1    -0.46   0.35  -0.26     0.06  -0.51  -0.44     0.83  -0.41   0.26
     5   1    -0.33  -0.09   0.42     0.61  -0.15  -0.11    -0.01   0.13  -0.03
                     7                      8                      9
                     A                      A                      A
 Frequencies --  1287.5251              2269.8846              3524.7312
 Red. masses --     2.5873                12.0848                 1.0764
 Frc consts  --     2.5271                36.6858                 7.8788
 IR Inten    --     7.6714               431.6584                59.6533
  Atom  AN      X      Y      Z        X      Y      Z        X      Y      Z
     1   7     0.08   0.03  -0.03     0.72   0.12   0.01    -0.00   0.00  -0.00
     2   7     0.23   0.03   0.01    -0.53  -0.11  -0.00    -0.00  -0.00  -0.00
     3   7    -0.24  -0.07   0.02    -0.17  -0.01   0.01     0.04   0.05  -0.04
     4   1    -0.89   0.16  -0.20    -0.37   0.03  -0.09    -0.47  -0.66   0.58
     5   1    -0.06   0.15   0.04     0.04  -0.06  -0.03     0.00  -0.01  -0.00

 -------------------
 - Thermochemistry -
 -------------------
 Temperature   298.150 Kelvin.  Pressure   1.00000 Atm.
 Atom     1 has atomic number  7 and mass  14.00307
 Atom     2 has atomic number  7 and mass  14.00307
 Atom     3 has atomic number  7 and mass  14.00307
 Atom     4 has atomic number  1 and mass   1.00783
 Atom     5 has atomic number  1 and mass   1.00783
 Molecular mass:    44.02487 amu.
 Principal axes and moments of inertia in atomic units:
                           1         2         3
     Eigenvalues --    12.22571 162.77634 171.74219
           X            0.99904  -0.03616  -0.02489
           Y            0.03580   0.99925  -0.01495
           Z            0.02541   0.01404   0.99958
 This molecule is an asymmetric top.
 Rotational symmetry number  1.
 Rotational temperatures (Kelvin)      7.08456     0.53210     0.50432
 Rotational constants (GHZ):         147.61849    11.08725    10.50843
    1 imaginary frequencies ignored.
 Zero-point vibrational energy      60910.1 (Joules/Mol)
                                   14.55786 (Kcal/Mol)
 Warning -- explicit consideration of   3 degrees of freedom as
           vibrations may cause significant error
 Vibrational temperatures:    425.28   602.14   819.92   927.05  1687.60
          (Kelvin)           1852.46  3265.85  5071.30
 
 Zero-point correction=                           0.023199 (Hartree/Particle)
 Thermal correction to Energy=                    0.027095
 Thermal correction to Enthalpy=                  0.028039
 Thermal correction to Gibbs Free Energy=        -0.001615
 Sum of electronic and zero-point Energies=           -165.199845
 Sum of electronic and thermal Energies=              -165.195950
 Sum of electronic and thermal Enthalpies=            -165.195005
 Sum of electronic and thermal Free Energies=         -165.224659
 
                     E (Thermal)             CV                S
                      KCal/Mol        Cal/Mol-Kelvin    Cal/Mol-Kelvin
 Total                   17.002             11.491             62.411
 Electronic               0.000              0.000              1.377
 Translational            0.889              2.981             37.273
 Rotational               0.889              2.981             20.463
 Vibrational             15.225              5.530              3.298
 Vibration     1          0.690              1.682              1.442
 Vibration     2          0.781              1.430              0.897
 Vibration     3          0.926              1.096              0.504
                       Q            Log10(Q)             Ln(Q)
 Total Bot       0.553112D+01          0.742813          1.710390
 Total V=0       0.259290D+12         11.413785         26.281212
 Vib (Bot)       0.363968D-10        -10.438937        -24.036541
 Vib (Bot)    1  0.644988D+00         -0.190449         -0.438524
 Vib (Bot)    2  0.420040D+00         -0.376709         -0.867406
 Vib (Bot)    3  0.270105D+00         -0.568467         -1.308945
 Vib (V=0)       0.170622D+01          0.232035          0.534281
 Vib (V=0)    1  0.131609D+01          0.119287          0.274668
 Vib (V=0)    2  0.115302D+01          0.061836          0.142384
 Vib (V=0)    3  0.106829D+01          0.028690          0.066062
 Electronic      0.200000D+01          0.301030          0.693147
 Translational   0.114816D+08          7.060002         16.256256
 Rotational      0.661786D+04          3.820718          8.797527
 
                                                         RC, from TS 1reverse
                                                             IR Spectrum
 
     3                                             2                                  1   1                                          
     5                                             2                                  2   1                  6  5    4    2          
     2                                             7                                  8   7                  4  7    1    9          
     5                                             0                                  8   3                  4  0    9    6          
 
     X                                             X                                  X   X                  X  X    X    X          
     X                                             X                                      X                          X               
     X                                             X                                      X                          X               
                                                   X                                      X                                          
                                                   X                                      X                                          
                                                   X                                      X                                          
                                                   X                                                                                 
                                                   X                                                                                 
                                                   X                                                                                 
                                                   X                                                                                 
                                                   X                                                                                 
                                                   X                                                                                 
                                                   X                                                                                 
                                                   X                                                                                 
                                                   X                                                                                 
                                                   X                                                                                 
                                                   X                                                                                 
                                                   X                                                                                 
                                                   X                                                                                 
                                                   X                                                                                 
 
 ***** Axes restored to original set *****
 -------------------------------------------------------------------
 Center     Atomic                   Forces (Hartrees/Bohr)
 Number     Number              X              Y              Z
 -------------------------------------------------------------------
      1        7           0.000724975    0.000774788    0.000155792
      2        7          -0.000397259   -0.000429210   -0.000317774
      3        7          -0.000864378   -0.001272751    0.000444048
      4        1          -0.000117617   -0.000010878    0.000050553
      5        1           0.000654278    0.000938051   -0.000332618
 -------------------------------------------------------------------
 Cartesian Forces:  Max     0.001272751 RMS     0.000610604
 Z-matrix is all fixed cartesians, so copy forces.
 Force constants in Cartesian coordinates: 
                1             2             3             4             5 
      1  0.163051D+00
      2 -0.131178D-01  0.116750D+00
      3 -0.211040D+00  0.220377D-01  0.170416D+01
      4 -0.642087D-01  0.994046D-02  0.101114D+00  0.469346D-01
      5  0.140757D-01 -0.598547D-01 -0.443264D-01 -0.705311D-02  0.329664D-01
      6  0.130739D+00 -0.224134D-01 -0.112124D+01 -0.144712D+00  0.318007D-01
      7 -0.943745D-01  0.183448D-01  0.770880D-01  0.163625D-01 -0.149809D-01
      8  0.115869D-01 -0.275626D-01  0.317527D-01 -0.805256D-02  0.106995D-01
      9  0.982958D-01 -0.122822D-01 -0.525079D+00  0.440995D-01  0.161866D-01
     10  0.556756D-02  0.553561D-03  0.358695D-01 -0.171140D-02 -0.629868D-04
     11  0.409908D-02 -0.126300D-01 -0.199772D-03 -0.891523D-03  0.667125D-02
     12 -0.268997D-01  0.412195D-03 -0.615792D-01  0.179394D-02  0.469806D-03
     13 -0.100349D-01 -0.157211D-01 -0.303165D-02  0.262306D-02  0.802137D-02
     14 -0.166439D-01 -0.167029D-01 -0.926422D-02  0.605674D-02  0.951755D-02
     15  0.890536D-02  0.122457D-01  0.373896D-02 -0.229583D-02 -0.413069D-02
                6             7             8             9            10 
      6  0.118256D+01
      7 -0.606517D-02  0.334564D+00
      8 -0.337006D-01 -0.106651D-01  0.665112D-03
      9 -0.645572D-01  0.110079D+00  0.949066D-02  0.769777D+00
     10  0.366699D-02 -0.267494D+00 -0.110015D-01 -0.234301D+00  0.262538D+00
     11 -0.838901D-03 -0.781686D-02 -0.224081D-02  0.721094D-02  0.614612D-02
     12  0.103494D-01 -0.172263D+00  0.229219D-02 -0.178779D+00  0.196328D+00
     13  0.163714D-01  0.109415D-01  0.181323D-01 -0.181726D-01  0.109950D-02
     14  0.251522D-01  0.151181D-01  0.184387D-01 -0.206061D-01  0.436478D-02
     15 -0.711028D-02 -0.883829D-02 -0.983501D-02 -0.136208D-02 -0.156291D-02
               11            12            13            14            15 
     11  0.673535D-02
     12 -0.277948D-02  0.228425D+00
     13 -0.153682D-02  0.104122D-02 -0.462915D-02
     14  0.146423D-02 -0.394711D-03 -0.889575D-02 -0.127176D-01
     15 -0.339279D-02  0.158373D-02  0.379167D-02  0.511283D-02  0.314967D-02
 Leave Link  716 at Tue Apr 29 14:49:57 2014, MaxMem=   65536000 cpu:       0.2
 (Enter /apps/gaussian/g09/l103.exe)

 GradGradGradGradGradGradGradGradGradGradGradGradGradGradGradGradGradGrad
 Berny optimization.
 Search for a local minimum.
 Step number   1 out of a maximum of    2
 All quantities printed in internal units (Hartrees-Bohrs-Radians)
 Second derivative matrix not updated -- analytic derivatives used.
 The second derivative matrix:
                          X1        Y1        Z1        X2        Y2
           X1           0.16305
           Y1          -0.01312   0.11675
           Z1          -0.21104   0.02204   1.70416
           X2          -0.06421   0.00994   0.10111   0.04693
           Y2           0.01408  -0.05985  -0.04433  -0.00705   0.03297
           Z2           0.13074  -0.02241  -1.12124  -0.14471   0.03180
           X3          -0.09437   0.01834   0.07709   0.01636  -0.01498
           Y3           0.01159  -0.02756   0.03175  -0.00805   0.01070
           Z3           0.09830  -0.01228  -0.52508   0.04410   0.01619
           X4           0.00557   0.00055   0.03587  -0.00171  -0.00006
           Y4           0.00410  -0.01263  -0.00020  -0.00089   0.00667
           Z4          -0.02690   0.00041  -0.06158   0.00179   0.00047
           X5          -0.01003  -0.01572  -0.00303   0.00262   0.00802
           Y5          -0.01664  -0.01670  -0.00926   0.00606   0.00952
           Z5           0.00891   0.01225   0.00374  -0.00230  -0.00413
                          Z2        X3        Y3        Z3        X4
           Z2           1.18256
           X3          -0.00607   0.33456
           Y3          -0.03370  -0.01067   0.00067
           Z3          -0.06456   0.11008   0.00949   0.76978
           X4           0.00367  -0.26749  -0.01100  -0.23430   0.26254
           Y4          -0.00084  -0.00782  -0.00224   0.00721   0.00615
           Z4           0.01035  -0.17226   0.00229  -0.17878   0.19633
           X5           0.01637   0.01094   0.01813  -0.01817   0.00110
           Y5           0.02515   0.01512   0.01844  -0.02061   0.00436
           Z5          -0.00711  -0.00884  -0.00984  -0.00136  -0.00156
                          Y4        Z4        X5        Y5        Z5
           Y4           0.00674
           Z4          -0.00278   0.22842
           X5          -0.00154   0.00104  -0.00463
           Y5           0.00146  -0.00039  -0.00890  -0.01272
           Z5          -0.00339   0.00158   0.00379   0.00511   0.00315
     Eigenvalues ---   -0.04766   0.00789   0.01167   0.05832   0.15210
     Eigenvalues ---    0.21374   0.57081   1.04411   2.71090
 Eigenvalue     1 is  -4.77D-02 should be greater than     0.000000 Eigenvector:
                          Y5        X5        Y3        Z5        X4
   1                   -0.72856  -0.44978   0.36091   0.23068   0.16070
                          X3        Y1        X1        Z4        X2
   1                    0.12340  -0.11029  -0.09460  -0.08070   0.08046
 Angle between quadratic step and forces=  31.48 degrees.
 Linear search not attempted -- first point.
 TrRot= -0.001209 -0.003035  0.000726  1.748033  0.001347 -1.748622
 Variable       Old X    -DE/DX   Delta X   Delta X   Delta X     New X
                                 (Linear)    (Quad)   (Total)
    X1       -0.20536   0.00072   0.00000   0.00777   0.00646  -0.19891
    Y1       -0.12135   0.00077   0.00000   0.00875   0.00607  -0.11528
    Z1        0.17917   0.00016   0.00000   0.00120   0.00203   0.18120
    X2       -0.44370  -0.00040   0.00000  -0.00448  -0.00626  -0.44997
    Y2       -0.04243  -0.00043   0.00000  -0.00212  -0.00184  -0.04427
    Z2        2.30509  -0.00032   0.00000  -0.00174  -0.00106   2.30403
    X3        0.54524  -0.00086   0.00000  -0.00528  -0.00603   0.53921
    Y3       -0.01861  -0.00127   0.00000  -0.02097  -0.02702  -0.04563
    Z3       -2.03740   0.00044   0.00000   0.00103   0.00194  -2.03546
    X4       -0.92435  -0.00012   0.00000  -0.00618  -0.00662  -0.93097
    Y4       -0.03424  -0.00001   0.00000   0.00895   0.00212  -0.03212
    Z4       -3.27993   0.00005   0.00000   0.00250   0.00304  -3.27689
    X5        2.36697   0.00065   0.00000   0.01144   0.01246   2.37943
    Y5        2.56839   0.00094   0.00000   0.02900   0.02068   2.58907
    Z5       -2.92886  -0.00033   0.00000  -0.00380  -0.00594  -2.93480
         Item               Value     Threshold  Converged?
 Maximum Force            0.001273     0.000450     NO 
 RMS     Force            0.000611     0.000300     NO 
 Maximum Displacement     0.027022     0.001800     NO 
 RMS     Displacement     0.010238     0.001200     NO 
 Predicted change in Energy=-1.158432D-04
 GradGradGradGradGradGradGradGradGradGradGradGradGradGradGradGradGradGrad

 Leave Link  103 at Tue Apr 29 14:49:57 2014, MaxMem=   65536000 cpu:       0.0
 (Enter /apps/gaussian/g09/l9999.exe)

 Test job not archived.
 1\1\GINC-ROMEO158\Freq\UM06\6-311G(d,p)\H2N3(2)\ROOT\29-Apr-2014\0\\#P
  M06 6-311G** FREQ # GFINPUT IOP(6/7=3) POP=FULL\\RC, from TS 1reverse
 \\0,2\N,-0.108674,-0.064217,0.094813\N,-0.234798,-0.022453,1.219802\N,
 0.288529,-0.009846,-1.078148\H,-0.489145,-0.018119,-1.735664\H,1.25254
 6,1.359133,-1.549886\\Version=AM64L-G09RevA.02\State=2-A\HF=-165.22304
 42\S2=0.761044\S2-1=0.\S2A=0.750013\RMSD=7.931e-09\RMSF=6.106e-04\Zero
 Point=0.0231994\Thermal=0.0270946\Dipole=-0.6615027,-0.1856793,-0.4675
 796\DipoleDeriv=-0.0123695,-0.2063168,-0.2414826,-0.2298759,-0.0224614
 ,0.1829102,-0.6621795,-0.3010466,2.0002174,-0.1064394,0.0389012,0.0276
 576,0.1040657,-0.0348383,-0.1127522,0.5613242,0.4071403,-1.145986,0.02
 89649,0.1566642,0.2406344,0.2087427,-0.1815394,-0.2398416,0.0572855,-0
 .1155184,-1.0836319,0.166202,-0.0082206,-0.0808628,-0.0215808,0.327416
 6,0.0360152,0.0550725,0.041111,0.3264293,-0.0763581,0.018972,0.0540533
 ,-0.0613517,-0.0885775,0.1336683,-0.0115027,-0.0316862,-0.0970289\Pola
 r=19.9943313,8.0730716,19.2169283,-10.6320157,-8.2262762,45.0096271\PG
 =C01 [X(H2N3)]\NImag=1\\0.16305063,-0.01311778,0.11675014,-0.21104034,
 0.02203769,1.70415635,-0.06420872,0.00994046,0.10111445,0.04693459,0.0
 1407566,-0.05985468,-0.04432644,-0.00705311,0.03296636,0.13073886,-0.0
 2241335,-1.12123713,-0.14471205,0.03180068,1.18255520,-0.09437453,0.01
 834482,0.07708803,0.01636246,-0.01498094,-0.00606517,0.33456435,0.0115
 8690,-0.02756256,0.03175274,-0.00805256,0.01069953,-0.03370058,-0.0106
 6512,0.00066511,0.09829583,-0.01228219,-0.52507898,0.04409950,0.016186
 65,-0.06455724,0.11007853,0.00949066,0.76977728,0.00556756,0.00055356,
 0.03586952,-0.00171140,-0.00006299,0.00366699,-0.26749382,-0.01100148,
 -0.23430125,0.26253815,0.00409908,-0.01263002,-0.00019977,-0.00089152,
 0.00667125,-0.00083890,-0.00781686,-0.00224081,0.00721094,0.00614612,0
 .00673535,-0.02689971,0.00041220,-0.06157919,0.00179394,0.00046981,0.0
 1034944,-0.17226310,0.00229219,-0.17877898,0.19632765,-0.00277948,0.22
 842500,-0.01003495,-0.01572106,-0.00303165,0.00262306,0.00802137,0.016
 37137,0.01094154,0.01813225,-0.01817261,0.00109950,-0.00153682,0.00104
 122,-0.00462915,-0.01664386,-0.01670287,-0.00926422,0.00605674,0.00951
 755,0.02515215,0.01511810,0.01843872,-0.02060606,0.00436478,0.00146423
 ,-0.00039471,-0.00889575,-0.01271763,0.00890536,0.01224566,0.00373896,
 -0.00229583,-0.00413069,-0.00711028,-0.00883829,-0.00983501,-0.0013620
 8,-0.00156291,-0.00339279,0.00158373,0.00379167,0.00511283,0.00314967\
 \-0.00072498,-0.00077479,-0.00015579,0.00039726,0.00042921,0.00031777,
 0.00086438,0.00127275,-0.00044405,0.00011762,0.00001088,-0.00005055,-0
 .00065428,-0.00093805,0.00033262\\\@


 THE MEEK SHALL INHERIT THE EARTH.
 (THE REST OF US WILL ESCAPE TO THE STARS)
 Job cpu time:  0 days  0 hours  1 minutes 48.1 seconds.
 File lengths (MBytes):  RWF=      9 Int=      0 D2E=      0 Chk=      1 Scr=      1
 Normal termination of Gaussian 09 at Tue Apr 29 14:49:57 2014.
************
total 316
drwxrwxr-x 2 henon henon   4096 29 avril 14:49 .
drwxrwxr-x 3 henon henon   4096 29 avril 14:49 ..
-rw-r--r-- 1 henon henon    377 29 avril 14:49 1Rfreq.inp
-rw-rw-r-- 1 henon henon 310941 29 avril 14:49 1Rfreq.out
Run on 12 cores
romeo158
************
