 Entering Gaussian System, Link 0=g09
 Initial command:
 /apps/gaussian/g09/l1.exe /scratch_l/henon/7Rfreq_28778/Gau-28794.inp -scrdir=/scratch_l/henon/7Rfreq_28778/
 Entering Link 1 = /apps/gaussian/g09/l1.exe PID=     28795.
  
 Copyright (c) 1988,1990,1992,1993,1995,1998,2003,2009, Gaussian, Inc.
                  All Rights Reserved.
  
 This is part of the Gaussian(R) 09 program.  It is based on
 the Gaussian(R) 03 system (copyright 2003, Gaussian, Inc.),
 the Gaussian(R) 98 system (copyright 1998, Gaussian, Inc.),
 the Gaussian(R) 94 system (copyright 1995, Gaussian, Inc.),
 the Gaussian 92(TM) system (copyright 1992, Gaussian, Inc.),
 the Gaussian 90(TM) system (copyright 1990, Gaussian, Inc.),
 the Gaussian 88(TM) system (copyright 1988, Gaussian, Inc.),
 the Gaussian 86(TM) system (copyright 1986, Carnegie Mellon
 University), and the Gaussian 82(TM) system (copyright 1983,
 Carnegie Mellon University). Gaussian is a federally registered
 trademark of Gaussian, Inc.
  
 This software contains proprietary and confidential information,
 including trade secrets, belonging to Gaussian, Inc.
  
 This software is provided under written license and may be
 used, copied, transmitted, or stored only in accord with that
 written license.
  
 The following legend is applicable only to US Government
 contracts under FAR:
  
                    RESTRICTED RIGHTS LEGEND
  
 Use, reproduction and disclosure by the US Government is
 subject to restrictions as set forth in subparagraphs (a)
 and (c) of the Commercial Computer Software - Restricted
 Rights clause in FAR 52.227-19.
  
 Gaussian, Inc.
 340 Quinnipiac St., Bldg. 40, Wallingford CT 06492
  
  
 ---------------------------------------------------------------
 Warning -- This program may not be used in any manner that
 competes with the business of Gaussian, Inc. or will provide
 assistance to any competitor of Gaussian, Inc.  The licensee
 of this program is prohibited from giving any competitor of
 Gaussian, Inc. access to this program.  By using this program,
 the user acknowledges that Gaussian, Inc. is engaged in the
 business of creating and licensing software in the field of
 computational chemistry and represents and warrants to the
 licensee that it is not a competitor of Gaussian, Inc. and that
 it will not use this program in any manner prohibited above.
 ---------------------------------------------------------------
  

 Cite this work as:
 Gaussian 09, Revision A.02,
 M. J. Frisch, G. W. Trucks, H. B. Schlegel, G. E. Scuseria, 
 M. A. Robb, J. R. Cheeseman, G. Scalmani, V. Barone, B. Mennucci, 
 G. A. Petersson, H. Nakatsuji, M. Caricato, X. Li, H. P. Hratchian, 
 A. F. Izmaylov, J. Bloino, G. Zheng, J. L. Sonnenberg, M. Hada, 
 M. Ehara, K. Toyota, R. Fukuda, J. Hasegawa, M. Ishida, T. Nakajima, 
 Y. Honda, O. Kitao, H. Nakai, T. Vreven, J. A. Montgomery, Jr., 
 J. E. Peralta, F. Ogliaro, M. Bearpark, J. J. Heyd, E. Brothers, 
 K. N. Kudin, V. N. Staroverov, R. Kobayashi, J. Normand, 
 K. Raghavachari, A. Rendell, J. C. Burant, S. S. Iyengar, J. Tomasi, 
 M. Cossi, N. Rega, J. M. Millam, M. Klene, J. E. Knox, J. B. Cross, 
 V. Bakken, C. Adamo, J. Jaramillo, R. Gomperts, R. E. Stratmann, 
 O. Yazyev, A. J. Austin, R. Cammi, C. Pomelli, J. W. Ochterski, 
 R. L. Martin, K. Morokuma, V. G. Zakrzewski, G. A. Voth, 
 P. Salvador, J. J. Dannenberg, S. Dapprich, A. D. Daniels, 
 O. Farkas, J. B. Foresman, J. V. Ortiz, J. Cioslowski, 
 and D. J. Fox, Gaussian, Inc., Wallingford CT, 2009.
 
 ******************************************
 Gaussian 09:  AM64L-G09RevA.02 11-Jun-2009
                29-Apr-2014 
 ******************************************
 %NPROC=12
 Will use up to   12 processors via shared memory.
 %MEM=500MB
 --------------------------------------------------
 #P M06 6-311G** FREQ # GFINPUT IOP(6/7=3) POP=FULL
 --------------------------------------------------
 1/10=4,30=1,38=1/1,3;
 2/12=2,17=6,18=5,40=1/2;
 3/5=4,6=6,7=101,11=2,16=1,24=10,25=1,30=1,71=2,74=-54/1,2,3;
 4//1;
 5/5=2,38=5,98=1/2;
 8/6=4,10=90,11=11/1;
 11/6=1,8=1,9=11,15=111,16=1/1,2,10;
 10/6=1/2;
 6/7=3,18=1,28=1/1;
 7/8=1,10=1,25=1/1,2,3,16;
 1/10=4,30=1/3;
 99//99;
 Leave Link    1 at Tue Apr 29 14:52:48 2014, MaxMem=   65536000 cpu:       0.3
 (Enter /apps/gaussian/g09/l101.exe)
 ---------------------
 RC, from TS reverse 7
 ---------------------
 Symbolic Z-matrix:
 Charge =  0 Multiplicity = 2
 7                    -0.10362  -0.05839   0.0963 
 7                    -0.23783  -0.02566   1.21826 
 7                     0.2825   -0.01938  -1.07602 
 1                    -0.50093  -0.02129  -1.72748 
 1                     1.31988   1.45848  -1.58691 
 
 NAtoms=      5 NQM=      5 NQMF=      0 NMic=      0 NMicF=      0 NTot=      5.
                    Isotopes and Nuclear Properties:
 (Nuclear quadrupole moments (NQMom) in fm**2, nuclear magnetic moments (NMagM)
  in nuclear magnetons)

  Atom         1           2           3           4           5
 IAtWgt=          14          14          14           1           1
 AtmWgt=  14.0030740  14.0030740  14.0030740   1.0078250   1.0078250
 NucSpn=           2           2           2           1           1
 AtZEff=   0.0000000   0.0000000   0.0000000   0.0000000   0.0000000
 NQMom=    2.0440000   2.0440000   2.0440000   0.0000000   0.0000000
 NMagM=    0.4037610   0.4037610   0.4037610   2.7928460   2.7928460
 Leave Link  101 at Tue Apr 29 14:52:48 2014, MaxMem=   65536000 cpu:       0.6
 (Enter /apps/gaussian/g09/l103.exe)

 GradGradGradGradGradGradGradGradGradGradGradGradGradGradGradGradGradGrad
 Berny optimization.
 Initialization pass.
 Trust Radius=3.00D-01 FncErr=1.00D-07 GrdErr=1.00D-07
 Number of steps in this run=   2 maximum allowed number of steps=   2.
 GradGradGradGradGradGradGradGradGradGradGradGradGradGradGradGradGradGrad

 Leave Link  103 at Tue Apr 29 14:52:48 2014, MaxMem=   65536000 cpu:       0.0
 (Enter /apps/gaussian/g09/l202.exe)
                          Input orientation:                          
 ---------------------------------------------------------------------
 Center     Atomic      Atomic             Coordinates (Angstroms)
 Number     Number       Type             X           Y           Z
 ---------------------------------------------------------------------
      1          7           0       -0.103615   -0.058391    0.096301
      2          7           0       -0.237828   -0.025661    1.218259
      3          7           0        0.282502   -0.019384   -1.076018
      4          1           0       -0.500930   -0.021291   -1.727483
      5          1           0        1.319882    1.458479   -1.586908
 ---------------------------------------------------------------------
                    Distance matrix (angstroms):
                    1          2          3          4          5
     1  N    0.000000
     2  N    1.130431   0.000000
     3  N    1.234884   2.352550   0.000000
     4  H    1.866929   2.957472   1.018909   0.000000
     5  H    2.675898   3.535264   1.876498   2.350497   0.000000
 Stoichiometry    H2N3(2)
 Framework group  C1[X(H2N3)]
 Deg. of freedom     9
 Full point group                 C1      NOp   1
 Largest Abelian subgroup         C1      NOp   1
 Largest concise Abelian subgroup C1      NOp   1
                         Standard orientation:                         
 ---------------------------------------------------------------------
 Center     Atomic      Atomic             Coordinates (Angstroms)
 Number     Number       Type             X           Y           Z
 ---------------------------------------------------------------------
      1          7           0        0.201375   -0.101073    0.009609
      2          7           0        1.310835    0.115457    0.018955
      3          7           0       -1.025841   -0.114989   -0.127092
      4          1           0       -1.463823   -0.788188    0.499926
      5          1           0       -1.940763    1.492419    0.189770
 ---------------------------------------------------------------------
 Rotational constants (GHZ):    133.7336842     11.0715160     10.4273920
 Leave Link  202 at Tue Apr 29 14:52:48 2014, MaxMem=   65536000 cpu:       0.9
 (Enter /apps/gaussian/g09/l301.exe)
 Standard basis: 6-311G(d,p) (5D, 7F)
 Ernie: Thresh=  0.10000D-02 Tol=  0.10000D-05 Strict=F.
 AO basis set in the form of general basis input (Overlap normalization):
      1 0
 S   6 1.00       0.000000000000
      0.6293480000D+04  0.1969788147D-02
      0.9490440000D+03  0.1496128592D-01
      0.2187760000D+03  0.7350053084D-01
      0.6369160000D+02  0.2489367658D+00
      0.1882820000D+02  0.6024594331D+00
      0.2720230000D+01  0.2562017589D+00
 SP   3 1.00       0.000000000000
      0.3063310000D+02  0.1119060795D+00  0.3831191864D-01
      0.7026140000D+01  0.9216666549D+00  0.2374031155D+00
      0.2112050000D+01 -0.2569191826D-02  0.8175923978D+00
 SP   1 1.00       0.000000000000
      0.6840090000D+00  0.1000000000D+01  0.1000000000D+01
 SP   1 1.00       0.000000000000
      0.2008780000D+00  0.1000000000D+01  0.1000000000D+01
 D   1 1.00       0.000000000000
      0.9130000000D+00  0.1000000000D+01
 ****
      2 0
 S   6 1.00       0.000000000000
      0.6293480000D+04  0.1969788147D-02
      0.9490440000D+03  0.1496128592D-01
      0.2187760000D+03  0.7350053084D-01
      0.6369160000D+02  0.2489367658D+00
      0.1882820000D+02  0.6024594331D+00
      0.2720230000D+01  0.2562017589D+00
 SP   3 1.00       0.000000000000
      0.3063310000D+02  0.1119060795D+00  0.3831191864D-01
      0.7026140000D+01  0.9216666549D+00  0.2374031155D+00
      0.2112050000D+01 -0.2569191826D-02  0.8175923978D+00
 SP   1 1.00       0.000000000000
      0.6840090000D+00  0.1000000000D+01  0.1000000000D+01
 SP   1 1.00       0.000000000000
      0.2008780000D+00  0.1000000000D+01  0.1000000000D+01
 D   1 1.00       0.000000000000
      0.9130000000D+00  0.1000000000D+01
 ****
      3 0
 S   6 1.00       0.000000000000
      0.6293480000D+04  0.1969788147D-02
      0.9490440000D+03  0.1496128592D-01
      0.2187760000D+03  0.7350053084D-01
      0.6369160000D+02  0.2489367658D+00
      0.1882820000D+02  0.6024594331D+00
      0.2720230000D+01  0.2562017589D+00
 SP   3 1.00       0.000000000000
      0.3063310000D+02  0.1119060795D+00  0.3831191864D-01
      0.7026140000D+01  0.9216666549D+00  0.2374031155D+00
      0.2112050000D+01 -0.2569191826D-02  0.8175923978D+00
 SP   1 1.00       0.000000000000
      0.6840090000D+00  0.1000000000D+01  0.1000000000D+01
 SP   1 1.00       0.000000000000
      0.2008780000D+00  0.1000000000D+01  0.1000000000D+01
 D   1 1.00       0.000000000000
      0.9130000000D+00  0.1000000000D+01
 ****
      4 0
 S   3 1.00       0.000000000000
      0.3386500000D+02  0.2549381454D-01
      0.5094790000D+01  0.1903731086D+00
      0.1158790000D+01  0.8521614860D+00
 S   1 1.00       0.000000000000
      0.3258400000D+00  0.1000000000D+01
 S   1 1.00       0.000000000000
      0.1027410000D+00  0.1000000000D+01
 P   1 1.00       0.000000000000
      0.7500000000D+00  0.1000000000D+01
 ****
      5 0
 S   3 1.00       0.000000000000
      0.3386500000D+02  0.2549381454D-01
      0.5094790000D+01  0.1903731086D+00
      0.1158790000D+01  0.8521614860D+00
 S   1 1.00       0.000000000000
      0.3258400000D+00  0.1000000000D+01
 S   1 1.00       0.000000000000
      0.1027410000D+00  0.1000000000D+01
 P   1 1.00       0.000000000000
      0.7500000000D+00  0.1000000000D+01
 ****

 There are    66 symmetry adapted basis functions of A   symmetry.
 Integral buffers will be    131072 words long.
 Raffenetti 2 integral format.
 Two-electron integral symmetry is turned on.
    66 basis functions,   112 primitive gaussians,    69 cartesian basis functions
    12 alpha electrons       11 beta electrons
       nuclear repulsion energy        66.4608643282 Hartrees.
 IExCor= 4235 DFT=T Ex+Corr=M06 ExCW=0 ScaHFX=  0.270000
 ScaDFX=  1.000000  1.000000  1.000000  1.000000 ScalE2=  1.000000  1.000000
 IRadAn=      0 IRanWt=     -1 IRanGd=            0 ICorTp=0
 NAtoms=    5 NActive=    5 NUniq=    5 SFac= 7.50D-01 NAtFMM=   80 NAOKFM=F Big=F
 Leave Link  301 at Tue Apr 29 14:52:48 2014, MaxMem=   65536000 cpu:       0.3
 (Enter /apps/gaussian/g09/l302.exe)
 NPDir=0 NMtPBC=     1 NCelOv=     1 NCel=       1 NClECP=     1 NCelD=      1
         NCelK=      1 NCelE2=     1 NClLst=     1 CellRange=     0.0.
 One-electron integrals computed using PRISM.
 NBasis=    66 RedAO= T  NBF=    66
 NBsUse=    66 1.00D-06 NBFU=    66
 Precomputing XC quadrature grid using
 IXCGrd= 2 IRadAn=           0 IRanWt=          -1 IRanGd=           0 AccXCQ= 1.00D-10.
 NRdTot=     311 NPtTot=       39452 NUsed=       41707 NTot=       41739
 NSgBfM=    69    69    69    69    69 NAtAll=     5     5.
 Leave Link  302 at Tue Apr 29 14:52:48 2014, MaxMem=   65536000 cpu:       1.3
 (Enter /apps/gaussian/g09/l303.exe)
 DipDrv:  MaxL=1.
 Leave Link  303 at Tue Apr 29 14:52:48 2014, MaxMem=   65536000 cpu:       0.1
 (Enter /apps/gaussian/g09/l401.exe)
 Harris functional with IExCor= 1009 diagonalized for initial guess.
 ExpMin= 1.03D-01 ExpMax= 6.29D+03 ExpMxC= 9.49D+02 IAcc=1 IRadAn=         1 AccDes= 0.00D+00
 HarFok:  IExCor= 1009 AccDes= 0.00D+00 IRadAn=         1 IDoV= 1
 ScaDFX=  1.000000  1.000000  1.000000  1.000000
 FoFCou: FMM=F IPFlag=           0 FMFlag=      100000 FMFlg1=           0
         NFxFlg=           0 DoJE=T BraDBF=F KetDBF=T FulRan=T
         Omega=  0.000000  0.000000  1.000000  0.000000  0.000000 ICntrl=     500 IOpCl=  0
         NMat0=    1 NMatS0=    1 NMatT0=    0 NMatD0=    1 NMtDS0=    0 NMtDT0=    0
         I1Cent=           4 NGrid=           0.
 Petite list used in FoFCou.
 Harris En= -165.164309915678    
 Initial guess orbital symmetries:
 Alpha Orbitals:
       Occupied  (A) (A) (A) (A) (A) (A) (A) (A) (A) (A) (A) (A)
       Virtual   (A) (A) (A) (A) (A) (A) (A) (A) (A) (A) (A) (A)
                 (A) (A) (A) (A) (A) (A) (A) (A) (A) (A) (A) (A)
                 (A) (A) (A) (A) (A) (A) (A) (A) (A) (A) (A) (A)
                 (A) (A) (A) (A) (A) (A) (A) (A) (A) (A) (A) (A)
                 (A) (A) (A) (A) (A) (A)
 Beta  Orbitals:
       Occupied  (A) (A) (A) (A) (A) (A) (A) (A) (A) (A) (A)
       Virtual   (A) (A) (A) (A) (A) (A) (A) (A) (A) (A) (A) (A)
                 (A) (A) (A) (A) (A) (A) (A) (A) (A) (A) (A) (A)
                 (A) (A) (A) (A) (A) (A) (A) (A) (A) (A) (A) (A)
                 (A) (A) (A) (A) (A) (A) (A) (A) (A) (A) (A) (A)
                 (A) (A) (A) (A) (A) (A) (A)
 The electronic state of the initial guess is 2-A.
 Initial guess <Sx>= 0.0000 <Sy>= 0.0000 <Sz>= 0.5000 <S**2>= 0.7500 S= 0.5000
 Leave Link  401 at Tue Apr 29 14:52:49 2014, MaxMem=   65536000 cpu:       1.6
 (Enter /apps/gaussian/g09/l502.exe)
 UHF open shell SCF:
 Requested convergence on RMS density matrix=1.00D-08 within 128 cycles.
 Requested convergence on MAX density matrix=1.00D-06.
 Requested convergence on             energy=1.00D-06.
 No special actions if energy rises.
 Using DIIS extrapolation, IDIIS=  1040.
 Integral symmetry usage will be decided dynamically.
        41649 words used for storage of precomputed grid.
 Keep R1 and R2 ints in memory in canonical form, NReq=6799222.
 IEnd=       75419 IEndB=       75419 NGot=    65536000 MDV=    59647384
 LenX=    59647384 LenY=    59642182
 Symmetry not used in FoFDir.
 MinBra= 0 MaxBra= 2 Meth= 1.
 IRaf=       0 NMat=   1 IRICut=       1 DoRegI=T DoRafI=F ISym2E= 0 JSym2E=0.
 Integral accuracy reduced to 1.0D-05 until final iterations.

 Cycle   1  Pass 0  IDiag  1:
 E= -165.179161485180    
 DIIS: error= 2.60D-02 at cycle   1 NSaved=   1.
 NSaved= 1 IEnMin= 1 EnMin= -165.179161485180     IErMin= 1 ErrMin= 2.60D-02
 ErrMax= 2.60D-02 EMaxC= 1.00D-01 BMatC= 2.17D-01 BMatP= 2.17D-01
 IDIUse=3 WtCom= 7.40D-01 WtEn= 2.60D-01
 Coeff-Com:  0.100D+01
 Coeff-En:   0.100D+01
 Coeff:      0.100D+01
 Gap=     0.185 Goal=   None    Shift=    0.000
 Gap=     0.202 Goal=   None    Shift=    0.000
 GapD=    0.185 DampG=1.000 DampE=0.500 DampFc=0.5000 IDamp=-1.
 Damping current iteration by 5.00D-01
 RMSDP=5.89D-03 MaxDP=1.33D-01              OVMax= 1.38D-01

 Cycle   2  Pass 0  IDiag  1:
 E= -165.192514731728     Delta-E=       -0.013353246547 Rises=F Damp=T
 DIIS: error= 8.91D-03 at cycle   2 NSaved=   2.
 NSaved= 2 IEnMin= 2 EnMin= -165.192514731728     IErMin= 2 ErrMin= 8.91D-03
 ErrMax= 8.91D-03 EMaxC= 1.00D-01 BMatC= 3.34D-02 BMatP= 2.17D-01
 IDIUse=3 WtCom= 9.11D-01 WtEn= 8.91D-02
 Coeff-Com:  0.216D+00 0.784D+00
 Coeff-En:   0.309D+00 0.691D+00
 Coeff:      0.224D+00 0.776D+00
 Gap=     0.191 Goal=   None    Shift=    0.000
 Gap=     0.226 Goal=   None    Shift=    0.000
 RMSDP=1.31D-03 MaxDP=2.15D-02 DE=-1.34D-02 OVMax= 8.97D-02

 Cycle   3  Pass 0  IDiag  1:
 E= -165.221863538793     Delta-E=       -0.029348807065 Rises=F Damp=F
 DIIS: error= 5.25D-03 at cycle   3 NSaved=   3.
 NSaved= 3 IEnMin= 3 EnMin= -165.221863538793     IErMin= 3 ErrMin= 5.25D-03
 ErrMax= 5.25D-03 EMaxC= 1.00D-01 BMatC= 8.31D-03 BMatP= 3.34D-02
 IDIUse=3 WtCom= 9.48D-01 WtEn= 5.25D-02
 Coeff-Com:  0.359D-01 0.312D+00 0.652D+00
 Coeff-En:   0.000D+00 0.000D+00 0.100D+01
 Coeff:      0.340D-01 0.296D+00 0.670D+00
 Gap=     0.191 Goal=   None    Shift=    0.000
 Gap=     0.241 Goal=   None    Shift=    0.000
 RMSDP=7.02D-04 MaxDP=9.78D-03 DE=-2.93D-02 OVMax= 2.75D-02

 Cycle   4  Pass 0  IDiag  1:
 E= -165.222304565057     Delta-E=       -0.000441026264 Rises=F Damp=F
 DIIS: error= 7.49D-03 at cycle   4 NSaved=   4.
 NSaved= 4 IEnMin= 4 EnMin= -165.222304565057     IErMin= 3 ErrMin= 5.25D-03
 ErrMax= 7.49D-03 EMaxC= 1.00D-01 BMatC= 7.35D-03 BMatP= 8.31D-03
 IDIUse=3 WtCom= 9.25D-01 WtEn= 7.49D-02
 Coeff-Com: -0.102D-02 0.114D+00 0.490D+00 0.396D+00
 Coeff-En:   0.000D+00 0.000D+00 0.437D+00 0.563D+00
 Coeff:     -0.941D-03 0.106D+00 0.486D+00 0.409D+00
 Gap=     0.191 Goal=   None    Shift=    0.000
 Gap=     0.241 Goal=   None    Shift=    0.000
 RMSDP=4.87D-04 MaxDP=5.39D-03 DE=-4.41D-04 OVMax= 2.13D-02

 Cycle   5  Pass 0  IDiag  1:
 E= -165.223643599592     Delta-E=       -0.001339034535 Rises=F Damp=F
 DIIS: error= 3.10D-03 at cycle   5 NSaved=   5.
 NSaved= 5 IEnMin= 5 EnMin= -165.223643599592     IErMin= 5 ErrMin= 3.10D-03
 ErrMax= 3.10D-03 EMaxC= 1.00D-01 BMatC= 1.17D-03 BMatP= 7.35D-03
 IDIUse=3 WtCom= 9.69D-01 WtEn= 3.10D-02
 Coeff-Com: -0.128D-01-0.237D-02 0.165D+00 0.299D+00 0.552D+00
 Coeff-En:   0.000D+00 0.000D+00 0.000D+00 0.162D+00 0.838D+00
 Coeff:     -0.124D-01-0.229D-02 0.159D+00 0.295D+00 0.560D+00
 Gap=     0.197 Goal=   None    Shift=    0.000
 Gap=     0.243 Goal=   None    Shift=    0.000
 RMSDP=2.78D-04 MaxDP=4.22D-03 DE=-1.34D-03 OVMax= 1.42D-02

 Cycle   6  Pass 0  IDiag  1:
 E= -165.223963060787     Delta-E=       -0.000319461195 Rises=F Damp=F
 DIIS: error= 7.89D-04 at cycle   6 NSaved=   6.
 NSaved= 6 IEnMin= 6 EnMin= -165.223963060787     IErMin= 6 ErrMin= 7.89D-04
 ErrMax= 7.89D-04 EMaxC= 1.00D-01 BMatC= 8.42D-05 BMatP= 1.17D-03
 IDIUse=3 WtCom= 9.92D-01 WtEn= 7.89D-03
 Coeff-Com: -0.703D-02-0.109D-01-0.794D-01-0.757D-01 0.124D+00 0.105D+01
 Coeff-En:   0.000D+00 0.000D+00 0.000D+00 0.000D+00 0.000D+00 0.100D+01
 Coeff:     -0.698D-02-0.108D-01-0.788D-01-0.751D-01 0.123D+00 0.105D+01
 Gap=     0.197 Goal=   None    Shift=    0.000
 Gap=     0.246 Goal=   None    Shift=    0.000
 RMSDP=1.16D-04 MaxDP=1.94D-03 DE=-3.19D-04 OVMax= 7.52D-03

 Cycle   7  Pass 0  IDiag  1:
 E= -165.224010084633     Delta-E=       -0.000047023846 Rises=F Damp=F
 DIIS: error= 1.55D-04 at cycle   7 NSaved=   7.
 NSaved= 7 IEnMin= 7 EnMin= -165.224010084633     IErMin= 7 ErrMin= 1.55D-04
 ErrMax= 1.55D-04 EMaxC= 1.00D-01 BMatC= 3.94D-06 BMatP= 8.42D-05
 IDIUse=3 WtCom= 9.98D-01 WtEn= 1.55D-03
 Coeff-Com: -0.941D-04 0.582D-03-0.220D-01-0.378D-01-0.600D-01 0.153D+00
 Coeff-Com:  0.966D+00
 Coeff-En:   0.000D+00 0.000D+00 0.000D+00 0.000D+00 0.000D+00 0.000D+00
 Coeff-En:   0.100D+01
 Coeff:     -0.940D-04 0.581D-03-0.220D-01-0.377D-01-0.599D-01 0.153D+00
 Coeff:      0.966D+00
 Gap=     0.198 Goal=   None    Shift=    0.000
 Gap=     0.247 Goal=   None    Shift=    0.000
 RMSDP=4.26D-05 MaxDP=7.01D-04 DE=-4.70D-05 OVMax= 1.75D-03

 Cycle   8  Pass 0  IDiag  1:
 E= -165.224013067778     Delta-E=       -0.000002983145 Rises=F Damp=F
 DIIS: error= 4.08D-05 at cycle   8 NSaved=   8.
 NSaved= 8 IEnMin= 8 EnMin= -165.224013067778     IErMin= 8 ErrMin= 4.08D-05
 ErrMax= 4.08D-05 EMaxC= 1.00D-01 BMatC= 1.94D-07 BMatP= 3.94D-06
 IDIUse=1 WtCom= 1.00D+00 WtEn= 0.00D+00
 Coeff-Com:  0.325D-03 0.666D-03 0.584D-02 0.323D-02-0.180D-02-0.576D-01
 Coeff-Com: -0.720D-01 0.112D+01
 Coeff:      0.325D-03 0.666D-03 0.584D-02 0.323D-02-0.180D-02-0.576D-01
 Coeff:     -0.720D-01 0.112D+01
 Gap=     0.198 Goal=   None    Shift=    0.000
 Gap=     0.247 Goal=   None    Shift=    0.000
 RMSDP=1.01D-05 MaxDP=1.57D-04 DE=-2.98D-06 OVMax= 5.25D-04

 Cycle   9  Pass 0  IDiag  1:
 E= -165.224013278759     Delta-E=       -0.000000210981 Rises=F Damp=F
 DIIS: error= 9.42D-06 at cycle   9 NSaved=   9.
 NSaved= 9 IEnMin= 9 EnMin= -165.224013278759     IErMin= 9 ErrMin= 9.42D-06
 ErrMax= 9.42D-06 EMaxC= 1.00D-01 BMatC= 1.98D-08 BMatP= 1.94D-07
 IDIUse=1 WtCom= 1.00D+00 WtEn= 0.00D+00
 Coeff-Com: -0.666D-04 0.155D-03 0.173D-02 0.320D-02 0.506D-02-0.121D-01
 Coeff-Com: -0.852D-01-0.211D-01 0.111D+01
 Coeff:     -0.666D-04 0.155D-03 0.173D-02 0.320D-02 0.506D-02-0.121D-01
 Coeff:     -0.852D-01-0.211D-01 0.111D+01
 Gap=     0.198 Goal=   None    Shift=    0.000
 Gap=     0.247 Goal=   None    Shift=    0.000
 RMSDP=3.45D-06 MaxDP=4.28D-05 DE=-2.11D-07 OVMax= 1.77D-04

 Initial convergence to 1.0D-05 achieved.  Increase integral accuracy.
 Cycle  10  Pass 1  IDiag  1:
 E= -165.224010248985     Delta-E=        0.000003029775 Rises=F Damp=F
 DIIS: error= 2.28D-04 at cycle   1 NSaved=   1.
 NSaved= 1 IEnMin= 1 EnMin= -165.224010248985     IErMin= 1 ErrMin= 2.28D-04
 ErrMax= 2.28D-04 EMaxC= 1.00D-01 BMatC= 2.06D-05 BMatP= 2.06D-05
 IDIUse=3 WtCom= 9.98D-01 WtEn= 2.28D-03
 Coeff-Com:  0.100D+01
 Coeff-En:   0.100D+01
 Coeff:      0.100D+01
 Gap=     0.198 Goal=   None    Shift=    0.000
 Gap=     0.247 Goal=   None    Shift=    0.000
 RMSDP=3.45D-06 MaxDP=4.28D-05 DE= 3.03D-06 OVMax= 6.62D-04

 Cycle  11  Pass 1  IDiag  1:
 E= -165.224014195420     Delta-E=       -0.000003946435 Rises=F Damp=F
 DIIS: error= 2.05D-05 at cycle   2 NSaved=   2.
 NSaved= 2 IEnMin= 2 EnMin= -165.224014195420     IErMin= 2 ErrMin= 2.05D-05
 ErrMax= 2.05D-05 EMaxC= 1.00D-01 BMatC= 1.45D-07 BMatP= 2.06D-05
 IDIUse=1 WtCom= 1.00D+00 WtEn= 0.00D+00
 Coeff-Com:  0.128D-01 0.987D+00
 Coeff:      0.128D-01 0.987D+00
 Gap=     0.198 Goal=   None    Shift=    0.000
 Gap=     0.247 Goal=   None    Shift=    0.000
 RMSDP=6.28D-06 MaxDP=1.22D-04 DE=-3.95D-06 OVMax= 1.07D-04

 Cycle  12  Pass 1  IDiag  1:
 E= -165.224014158447     Delta-E=        0.000000036972 Rises=F Damp=F
 DIIS: error= 4.10D-05 at cycle   3 NSaved=   3.
 NSaved= 3 IEnMin= 2 EnMin= -165.224014195420     IErMin= 2 ErrMin= 2.05D-05
 ErrMax= 4.10D-05 EMaxC= 1.00D-01 BMatC= 3.95D-07 BMatP= 1.45D-07
 IDIUse=1 WtCom= 1.00D+00 WtEn= 0.00D+00
 Coeff-Com:  0.154D-02 0.645D+00 0.353D+00
 Coeff:      0.154D-02 0.645D+00 0.353D+00
 Gap=     0.198 Goal=   None    Shift=    0.000
 Gap=     0.247 Goal=   None    Shift=    0.000
 RMSDP=3.10D-06 MaxDP=3.96D-05 DE= 3.70D-08 OVMax= 1.11D-04

 Cycle  13  Pass 1  IDiag  1:
 E= -165.224014224410     Delta-E=       -0.000000065963 Rises=F Damp=F
 DIIS: error= 1.94D-05 at cycle   4 NSaved=   4.
 NSaved= 4 IEnMin= 4 EnMin= -165.224014224410     IErMin= 4 ErrMin= 1.94D-05
 ErrMax= 1.94D-05 EMaxC= 1.00D-01 BMatC= 4.11D-08 BMatP= 1.45D-07
 IDIUse=1 WtCom= 1.00D+00 WtEn= 0.00D+00
 Coeff-Com: -0.221D-02 0.157D+00 0.237D+00 0.608D+00
 Coeff:     -0.221D-02 0.157D+00 0.237D+00 0.608D+00
 Gap=     0.198 Goal=   None    Shift=    0.000
 Gap=     0.247 Goal=   None    Shift=    0.000
 RMSDP=1.67D-06 MaxDP=1.91D-05 DE=-6.60D-08 OVMax= 7.53D-05

 Cycle  14  Pass 1  IDiag  1:
 E= -165.224014231313     Delta-E=       -0.000000006902 Rises=F Damp=F
 DIIS: error= 1.03D-05 at cycle   5 NSaved=   5.
 NSaved= 5 IEnMin= 5 EnMin= -165.224014231313     IErMin= 5 ErrMin= 1.03D-05
 ErrMax= 1.03D-05 EMaxC= 1.00D-01 BMatC= 1.39D-08 BMatP= 4.11D-08
 IDIUse=1 WtCom= 1.00D+00 WtEn= 0.00D+00
 Coeff-Com: -0.186D-02-0.611D-02 0.929D-01 0.445D+00 0.471D+00
 Coeff:     -0.186D-02-0.611D-02 0.929D-01 0.445D+00 0.471D+00
 Gap=     0.198 Goal=   None    Shift=    0.000
 Gap=     0.247 Goal=   None    Shift=    0.000
 RMSDP=6.03D-07 MaxDP=7.44D-06 DE=-6.90D-09 OVMax= 2.38D-05

 Cycle  15  Pass 1  IDiag  1:
 E= -165.224014234508     Delta-E=       -0.000000003196 Rises=F Damp=F
 DIIS: error= 1.78D-06 at cycle   6 NSaved=   6.
 NSaved= 6 IEnMin= 6 EnMin= -165.224014234508     IErMin= 6 ErrMin= 1.78D-06
 ErrMax= 1.78D-06 EMaxC= 1.00D-01 BMatC= 5.54D-10 BMatP= 1.39D-08
 IDIUse=1 WtCom= 1.00D+00 WtEn= 0.00D+00
 Coeff-Com: -0.723D-03-0.151D-01 0.214D-01 0.159D+00 0.204D+00 0.631D+00
 Coeff:     -0.723D-03-0.151D-01 0.214D-01 0.159D+00 0.204D+00 0.631D+00
 Gap=     0.198 Goal=   None    Shift=    0.000
 Gap=     0.247 Goal=   None    Shift=    0.000
 RMSDP=1.87D-07 MaxDP=2.64D-06 DE=-3.20D-09 OVMax= 9.12D-06

 Cycle  16  Pass 1  IDiag  1:
 E= -165.224014234713     Delta-E=       -0.000000000205 Rises=F Damp=F
 DIIS: error= 6.26D-07 at cycle   7 NSaved=   7.
 NSaved= 7 IEnMin= 7 EnMin= -165.224014234713     IErMin= 7 ErrMin= 6.26D-07
 ErrMax= 6.26D-07 EMaxC= 1.00D-01 BMatC= 9.65D-11 BMatP= 5.54D-10
 IDIUse=1 WtCom= 1.00D+00 WtEn= 0.00D+00
 Coeff-Com:  0.341D-03-0.441D-02-0.175D-01-0.787D-01-0.962D-01 0.115D+00
 Coeff-Com:  0.108D+01
 Coeff:      0.341D-03-0.441D-02-0.175D-01-0.787D-01-0.962D-01 0.115D+00
 Coeff:      0.108D+01
 Gap=     0.198 Goal=   None    Shift=    0.000
 Gap=     0.247 Goal=   None    Shift=    0.000
 RMSDP=1.85D-07 MaxDP=2.63D-06 DE=-2.05D-10 OVMax= 8.56D-06

 Cycle  17  Pass 1  IDiag  1:
 E= -165.224014234810     Delta-E=       -0.000000000097 Rises=F Damp=F
 DIIS: error= 3.09D-07 at cycle   8 NSaved=   8.
 NSaved= 8 IEnMin= 8 EnMin= -165.224014234810     IErMin= 8 ErrMin= 3.09D-07
 ErrMax= 3.09D-07 EMaxC= 1.00D-01 BMatC= 1.25D-11 BMatP= 9.65D-11
 IDIUse=1 WtCom= 1.00D+00 WtEn= 0.00D+00
 Coeff-Com:  0.165D-03 0.334D-02-0.271D-02-0.340D-01-0.430D-01-0.108D+00
 Coeff-Com: -0.442D-01 0.123D+01
 Coeff:      0.165D-03 0.334D-02-0.271D-02-0.340D-01-0.430D-01-0.108D+00
 Coeff:     -0.442D-01 0.123D+01
 Gap=     0.198 Goal=   None    Shift=    0.000
 Gap=     0.247 Goal=   None    Shift=    0.000
 RMSDP=1.09D-07 MaxDP=1.57D-06 DE=-9.71D-11 OVMax= 4.92D-06

 Cycle  18  Pass 1  IDiag  1:
 E= -165.224014234833     Delta-E=       -0.000000000023 Rises=F Damp=F
 DIIS: error= 1.67D-07 at cycle   9 NSaved=   9.
 NSaved= 9 IEnMin= 9 EnMin= -165.224014234833     IErMin= 9 ErrMin= 1.67D-07
 ErrMax= 1.67D-07 EMaxC= 1.00D-01 BMatC= 2.01D-12 BMatP= 1.25D-11
 IDIUse=1 WtCom= 1.00D+00 WtEn= 0.00D+00
 Coeff-Com: -0.474D-04 0.390D-03 0.174D-02 0.121D-01 0.109D-01-0.121D-01
 Coeff-Com: -0.158D+00-0.163D-01 0.116D+01
 Coeff:     -0.474D-04 0.390D-03 0.174D-02 0.121D-01 0.109D-01-0.121D-01
 Coeff:     -0.158D+00-0.163D-01 0.116D+01
 Gap=     0.198 Goal=   None    Shift=    0.000
 Gap=     0.247 Goal=   None    Shift=    0.000
 RMSDP=3.90D-08 MaxDP=5.32D-07 DE=-2.30D-11 OVMax= 1.80D-06

 Cycle  19  Pass 1  IDiag  1:
 E= -165.224014234836     Delta-E=       -0.000000000003 Rises=F Damp=F
 DIIS: error= 5.19D-08 at cycle  10 NSaved=  10.
 NSaved=10 IEnMin=10 EnMin= -165.224014234836     IErMin=10 ErrMin= 5.19D-08
 ErrMax= 5.19D-08 EMaxC= 1.00D-01 BMatC= 2.34D-13 BMatP= 2.01D-12
 IDIUse=1 WtCom= 1.00D+00 WtEn= 0.00D+00
 Coeff-Com: -0.192D-04-0.431D-03 0.370D-03 0.442D-02 0.538D-02 0.125D-01
 Coeff-Com:  0.310D-01-0.187D+00-0.155D+00 0.129D+01
 Coeff:     -0.192D-04-0.431D-03 0.370D-03 0.442D-02 0.538D-02 0.125D-01
 Coeff:      0.310D-01-0.187D+00-0.155D+00 0.129D+01
 Gap=     0.198 Goal=   None    Shift=    0.000
 Gap=     0.247 Goal=   None    Shift=    0.000
 RMSDP=1.45D-08 MaxDP=1.92D-07 DE=-3.24D-12 OVMax= 6.32D-07

 Cycle  20  Pass 1  IDiag  1:
 E= -165.224014234836     Delta-E=        0.000000000000 Rises=F Damp=F
 DIIS: error= 2.31D-08 at cycle  11 NSaved=  11.
 NSaved=11 IEnMin=10 EnMin= -165.224014234836     IErMin=11 ErrMin= 2.31D-08
 ErrMax= 2.31D-08 EMaxC= 1.00D-01 BMatC= 3.06D-14 BMatP= 2.34D-13
 IDIUse=1 WtCom= 1.00D+00 WtEn= 0.00D+00
 Coeff-Com:  0.299D-05-0.710D-04-0.133D-03-0.124D-02-0.671D-03 0.127D-02
 Coeff-Com:  0.218D-01-0.137D-01-0.124D+00 0.826D-01 0.103D+01
 Coeff:      0.299D-05-0.710D-04-0.133D-03-0.124D-02-0.671D-03 0.127D-02
 Coeff:      0.218D-01-0.137D-01-0.124D+00 0.826D-01 0.103D+01
 Gap=     0.198 Goal=   None    Shift=    0.000
 Gap=     0.247 Goal=   None    Shift=    0.000
 RMSDP=3.43D-09 MaxDP=5.48D-08 DE= 0.00D+00 OVMax= 1.81D-07

 SCF Done:  E(UM06) =  -165.224014235     A.U. after   20 cycles
             Convg  =    0.3428D-08             -V/T =  2.0019
 <Sx>= 0.0000 <Sy>= 0.0000 <Sz>= 0.5000 <S**2>= 0.7564 S= 0.5032
 <L.S>=  0.00000000000    
 KE= 1.649088821354D+02 PE=-5.193656268062D+02 EE= 1.227718661077D+02
 Annihilation of the first spin contaminant:
 S**2 before annihilation     0.7564,   after     0.7500
 Leave Link  502 at Tue Apr 29 14:52:50 2014, MaxMem=   65536000 cpu:      16.9
 (Enter /apps/gaussian/g09/l801.exe)
 Range of M.O.s used for correlation:     1    66
 NBasis=    66 NAE=    12 NBE=    11 NFC=     0 NFV=     0
 NROrb=     66 NOA=    12 NOB=    11 NVA=    54 NVB=    55

 **** Warning!!: The largest alpha MO coefficient is  0.10635170D+02


 **** Warning!!: The largest beta MO coefficient is  0.10698337D+02

 Leave Link  801 at Tue Apr 29 14:52:50 2014, MaxMem=   65536000 cpu:       0.1
 (Enter /apps/gaussian/g09/l1101.exe)
 Using compressed storage, NAtomX=     5.
 Will process   6 centers per pass.
 Leave Link 1101 at Tue Apr 29 14:52:50 2014, MaxMem=   65536000 cpu:       1.4
 (Enter /apps/gaussian/g09/l1102.exe)
 Symmetrizing basis deriv contribution to polar:
 IMax=3 JMax=2 DiffMx= 0.00D+00
 Leave Link 1102 at Tue Apr 29 14:52:50 2014, MaxMem=   65536000 cpu:       1.4
 (Enter /apps/gaussian/g09/l1110.exe)
 Forming Gx(P) for the SCF density, NAtomX=     5.
 Integral derivatives from FoFDir/FoFCou, PRISM(SPDF).
 Do as many integral derivatives as possible in FoFDir.
 G2DrvN: MDV=      65535856.
 G2DrvN: will do     6 centers at a time, making    1 passes doing MaxLOS=2.
 Calling FoFCou, ICntrl=  3107 FMM=F I1Cent=   0 AccDes= 0.00D+00.
 FoFCou: FMM=F IPFlag=           0 FMFlag=      100000 FMFlg1=           0
         NFxFlg=           0 DoJE=F BraDBF=F KetDBF=F FulRan=T
         Omega=  0.000000  0.000000  1.000000  0.000000  0.000000 ICntrl=    3107 IOpCl=  1
         NMat0=    1 NMatS0=    1 NMatT0=    0 NMatD0=    1 NMtDS0=    0 NMtDT0=    0
         I1Cent=           0 NGrid=           0.
 Symmetry not used in FoFCou.
 FoFDir/FoFCou used for L=0 through L=2.
 End of G2Drv Frequency-dependent properties file   721 does not exist.
 End of G2Drv Frequency-dependent properties file   722 does not exist.
 Leave Link 1110 at Tue Apr 29 14:52:52 2014, MaxMem=   65536000 cpu:      16.7
 (Enter /apps/gaussian/g09/l1002.exe)
 Minotr:  UHF open shell wavefunction.
          IDoAtm=11111
          Direct CPHF calculation.
          Differentiating once with respect to electric field.
                with respect to dipole field.
          Differentiating once with respect to nuclear coordinates.
          Requested convergence is 1.0D-08 RMS, and 1.0D-07 maximum.
          Secondary convergence is 1.0D-12 RMS, and 1.0D-12 maximum.
          NewPWx=T KeepS1=F KeepF1=F KeepIn=T MapXYZ=F SortEE=F KeepMc=T.
          MDV=      65535946 using IRadAn=       2.
 Generate precomputed XC quadrature information.
          Keep R1 and R2 ints in memory in canonical form, NReq=6656460.
 Symmetry not used in FoFDir.
 MinBra= 0 MaxBra= 2 Meth= 1.
 IRaf=       0 NMat=   1 IRICut=       1 DoRegI=T DoRafI=F ISym2E= 0 JSym2E=0.
          Solving linear equations simultaneously, MaxMat=       0.
          There are    18 degrees of freedom in the 1st order CPHF.  IDoFFX=5.
     15 vectors produced by pass  0 Test12= 6.96D-15 5.56D-09 XBig12= 1.57D+02 5.24D+00.
 AX will form    15 AO Fock derivatives at one time.
     15 vectors produced by pass  1 Test12= 6.96D-15 5.56D-09 XBig12= 6.66D+01 1.39D+00.
     15 vectors produced by pass  2 Test12= 6.96D-15 5.56D-09 XBig12= 1.06D+00 2.11D-01.
     15 vectors produced by pass  3 Test12= 6.96D-15 5.56D-09 XBig12= 1.84D-02 3.56D-02.
     15 vectors produced by pass  4 Test12= 6.96D-15 5.56D-09 XBig12= 2.99D-04 3.13D-03.
     15 vectors produced by pass  5 Test12= 6.96D-15 5.56D-09 XBig12= 2.87D-06 4.27D-04.
     13 vectors produced by pass  6 Test12= 6.96D-15 5.56D-09 XBig12= 1.69D-08 1.91D-05.
      6 vectors produced by pass  7 Test12= 6.96D-15 5.56D-09 XBig12= 5.05D-11 1.11D-06.
      3 vectors produced by pass  8 Test12= 6.96D-15 5.56D-09 XBig12= 1.24D-13 5.56D-08.
 Inverted reduced A of dimension   112 with in-core refinement.
 FullF1:  Do perturbations    1 to     3.
 Isotropic polarizability for W=    0.000000       26.43 Bohr**3.
 End of Minotr Frequency-dependent properties file   721 does not exist.
 End of Minotr Frequency-dependent properties file   722 does not exist.
 Leave Link 1002 at Tue Apr 29 14:52:54 2014, MaxMem=   65536000 cpu:      24.6
 (Enter /apps/gaussian/g09/l601.exe)
 Copying SCF densities to generalized density rwf, IOpCl= 1 IROHF=0.

 **********************************************************************

            Population analysis using the SCF density.

 **********************************************************************

 Orbital symmetries:
 Alpha Orbitals:
       Occupied  (A) (A) (A) (A) (A) (A) (A) (A) (A) (A) (A) (A)
       Virtual   (A) (A) (A) (A) (A) (A) (A) (A) (A) (A) (A) (A)
                 (A) (A) (A) (A) (A) (A) (A) (A) (A) (A) (A) (A)
                 (A) (A) (A) (A) (A) (A) (A) (A) (A) (A) (A) (A)
                 (A) (A) (A) (A) (A) (A) (A) (A) (A) (A) (A) (A)
                 (A) (A) (A) (A) (A) (A)
 Beta  Orbitals:
       Occupied  (A) (A) (A) (A) (A) (A) (A) (A) (A) (A) (A)
       Virtual   (A) (A) (A) (A) (A) (A) (A) (A) (A) (A) (A) (A)
                 (A) (A) (A) (A) (A) (A) (A) (A) (A) (A) (A) (A)
                 (A) (A) (A) (A) (A) (A) (A) (A) (A) (A) (A) (A)
                 (A) (A) (A) (A) (A) (A) (A) (A) (A) (A) (A) (A)
                 (A) (A) (A) (A) (A) (A) (A)
 The electronic state is 2-A.
 Alpha  occ. eigenvalues --  -14.57275 -14.47200 -14.45093  -1.17706  -1.00932
 Alpha  occ. eigenvalues --   -0.65301  -0.55632  -0.54664  -0.48057  -0.38052
 Alpha  occ. eigenvalues --   -0.32105  -0.23396
 Alpha virt. eigenvalues --   -0.03620   0.00864   0.03800   0.22644   0.25767
 Alpha virt. eigenvalues --    0.36715   0.42010   0.45493   0.50154   0.52675
 Alpha virt. eigenvalues --    0.60439   0.64513   0.67513   0.68945   0.74210
 Alpha virt. eigenvalues --    0.76895   0.92513   1.02705   1.11608   1.22140
 Alpha virt. eigenvalues --    1.34834   1.38181   1.45896   1.49295   1.64438
 Alpha virt. eigenvalues --    1.65599   1.70209   1.79551   1.84893   2.07704
 Alpha virt. eigenvalues --    2.10354   2.17703   2.24229   2.34021   2.39051
 Alpha virt. eigenvalues --    2.42985   2.47219   2.66410   2.85254   3.02315
 Alpha virt. eigenvalues --    3.18393   3.49385   3.51284   3.63096   3.88085
 Alpha virt. eigenvalues --    3.90306   3.90922   4.08750   4.27772   4.36979
 Alpha virt. eigenvalues --    5.02717  34.96307  35.47291  36.18209
  Beta  occ. eigenvalues --  -14.57266 -14.46986 -14.44957  -1.17332  -1.00537
  Beta  occ. eigenvalues --   -0.65165  -0.54767  -0.54524  -0.47417  -0.36128
  Beta  occ. eigenvalues --   -0.30985
  Beta virt. eigenvalues --   -0.06280  -0.02493   0.02070   0.04998   0.23044
  Beta virt. eigenvalues --    0.36481   0.39986   0.41862   0.45692   0.50167
  Beta virt. eigenvalues --    0.53745   0.60623   0.65063   0.67790   0.68969
  Beta virt. eigenvalues --    0.74433   0.77678   0.92942   1.03417   1.12091
  Beta virt. eigenvalues --    1.22923   1.40738   1.45622   1.47077   1.51327
  Beta virt. eigenvalues --    1.64974   1.66153   1.70727   1.83828   1.87661
  Beta virt. eigenvalues --    2.08265   2.11006   2.20889   2.25263   2.37984
  Beta virt. eigenvalues --    2.39400   2.47325   2.65296   2.68638   2.85252
  Beta virt. eigenvalues --    3.02869   3.18633   3.49244   3.51484   3.63387
  Beta virt. eigenvalues --    3.87961   3.90693   3.91514   4.08662   4.27618
  Beta virt. eigenvalues --    4.37065   5.02680  34.96520  35.47503  36.18399
     Alpha Molecular Orbital Coefficients:
                           1         2         3         4         5
                           O         O         O         O         O
     Eigenvalues --   -14.57275 -14.47200 -14.45093  -1.17706  -1.00932
   1 1   N  1S          0.55747  -0.00325  -0.00111  -0.10554  -0.00645
   2        2S          0.46460  -0.00206  -0.00065  -0.16369  -0.01053
   3        2PX        -0.00023   0.00104  -0.00078   0.03234  -0.17961
   4        2PY         0.00018   0.00017  -0.00002   0.01364  -0.02141
   5        2PZ        -0.00015   0.00002  -0.00007  -0.00335  -0.00746
   6        3S          0.01839  -0.00285  -0.00093   0.46469   0.03546
   7        3PX         0.00235  -0.00580   0.00289   0.03219  -0.23767
   8        3PY         0.00083  -0.00102   0.00008   0.01615  -0.02772
   9        3PZ        -0.00015  -0.00009   0.00026  -0.00475  -0.00994
  10        4S         -0.00332   0.00347   0.00192   0.21136   0.02744
  11        4PX         0.00049   0.00790  -0.00821  -0.00566  -0.06916
  12        4PY        -0.00014   0.00101  -0.00042   0.00273  -0.01117
  13        4PZ         0.00008   0.00035  -0.00041  -0.00133  -0.00165
  14        5D 0       -0.00240   0.00137   0.00070  -0.01209  -0.00131
  15        5D+1        0.00040  -0.00001  -0.00036   0.00189   0.00123
  16        5D-1        0.00003  -0.00001   0.00001  -0.00068  -0.00016
  17        5D+2        0.00401  -0.00219  -0.00129   0.01966   0.00274
  18        5D-2        0.00100  -0.00094   0.00004   0.00509  -0.00192
  19 2   N  1S          0.00302   0.55744   0.00049  -0.06745   0.06518
  20        2S          0.00330   0.46513   0.00043  -0.10380   0.10155
  21        2PX        -0.00079  -0.00179  -0.00008  -0.08203   0.06904
  22        2PY        -0.00018  -0.00037   0.00003  -0.01550   0.01553
  23        2PZ         0.00001  -0.00001  -0.00003  -0.00103  -0.00020
  24        3S         -0.00322   0.01695  -0.00002   0.28938  -0.28678
  25        3PX         0.00559  -0.00413   0.00010  -0.10837   0.08948
  26        3PY         0.00121  -0.00079  -0.00014  -0.02003   0.02102
  27        3PZ        -0.00002  -0.00004   0.00011  -0.00158  -0.00066
  28        4S         -0.00107  -0.01195   0.00548   0.11351  -0.13705
  29        4PX        -0.00026   0.00405  -0.00180  -0.02234   0.02458
  30        4PY         0.00002   0.00096  -0.00063  -0.00531   0.00597
  31        4PZ        -0.00003  -0.00006  -0.00000   0.00021  -0.00033
  32        5D 0        0.00158  -0.00126   0.00004  -0.00877   0.00794
  33        5D+1        0.00004   0.00006  -0.00008   0.00044   0.00030
  34        5D-1        0.00001   0.00001  -0.00003  -0.00019   0.00026
  35        5D+2       -0.00248   0.00202  -0.00014   0.01350  -0.01144
  36        5D-2       -0.00116   0.00078   0.00014   0.00528  -0.00618
  37 3   N  1S          0.00103  -0.00049   0.55758  -0.04619  -0.08501
  38        2S          0.00123  -0.00039   0.46504  -0.07112  -0.13222
  39        2PX         0.00089   0.00013   0.00138   0.04748   0.06016
  40        2PY         0.00008   0.00006  -0.00070  -0.00352  -0.01477
  41        2PZ         0.00001  -0.00003   0.00094   0.01076   0.02415
  42        3S         -0.00104  -0.00003   0.01676   0.19746   0.37082
  43        3PX        -0.00382  -0.00028   0.00063   0.06931   0.09443
  44        3PY        -0.00041  -0.00019  -0.00072  -0.00396  -0.02147
  45        3PZ         0.00001   0.00009   0.00107   0.01467   0.03516
  46        4S          0.00038   0.00401  -0.01254   0.07503   0.20663
  47        4PX         0.00095   0.00182  -0.00340   0.00187   0.02222
  48        4PY         0.00008   0.00002  -0.00010  -0.00528  -0.00661
  49        4PZ         0.00003   0.00012  -0.00103   0.00716   0.01465
  50        5D 0        0.00105   0.00007  -0.00051  -0.00472  -0.00761
  51        5D+1       -0.00069   0.00005  -0.00022   0.00242   0.00481
  52        5D-1       -0.00023  -0.00000  -0.00053  -0.00152  -0.00369
  53        5D+2       -0.00192  -0.00011   0.00081   0.00837   0.01375
  54        5D-2        0.00031  -0.00016   0.00050   0.00014  -0.00143
  55 4   H  1S         -0.00031  -0.00002  -0.00006   0.02111   0.05576
  56        2S         -0.00076   0.00002  -0.00142   0.01883   0.05292
  57        3S          0.00072   0.00045   0.00139  -0.01177  -0.00933
  58        4PX        -0.00018   0.00011  -0.00075   0.00454   0.00912
  59        4PY        -0.00051   0.00001  -0.00129   0.00339   0.00894
  60        4PZ         0.00048   0.00000   0.00134  -0.00292  -0.00829
  61 5   H  1S          0.00007   0.00003  -0.00012   0.00128   0.00452
  62        2S         -0.00021  -0.00012   0.00043   0.00348   0.00416
  63        3S          0.00024   0.00015   0.00020  -0.00272  -0.00029
  64        4PX        -0.00001  -0.00001   0.00029   0.00013  -0.00032
  65        4PY        -0.00001  -0.00001  -0.00030  -0.00005  -0.00022
  66        4PZ        -0.00001  -0.00000  -0.00004  -0.00002   0.00000
                           6         7         8         9        10
                           O         O         O         O         O
     Eigenvalues --    -0.65301  -0.55632  -0.54664  -0.48057  -0.38052
   1 1   N  1S          0.04166   0.02432  -0.01961   0.02764   0.00679
   2        2S          0.06645   0.03928  -0.03158   0.04465   0.01113
   3        2PX         0.09508  -0.01017  -0.02737  -0.11981   0.02832
   4        2PY        -0.03362   0.21232   0.02491  -0.04485  -0.06100
   5        2PZ         0.05500  -0.00378   0.21593   0.02593   0.03629
   6        3S         -0.20667  -0.12090   0.09762  -0.14234  -0.03860
   7        3PX         0.13179  -0.01794  -0.04043  -0.16212   0.03682
   8        3PY        -0.05337   0.32721   0.03908  -0.06516  -0.09295
   9        3PZ         0.08467  -0.00506   0.33214   0.03984   0.05586
  10        4S         -0.21138  -0.13228   0.10502  -0.16636  -0.01742
  11        4PX         0.07349   0.01071  -0.03237  -0.12855   0.12334
  12        4PY        -0.03458   0.22755   0.02056  -0.05484  -0.06460
  13        4PZ         0.04883  -0.01058   0.23360   0.03437   0.04359
  14        5D 0       -0.00151  -0.00021  -0.00242  -0.00028   0.00167
  15        5D+1       -0.00586  -0.00102   0.00556   0.00391   0.01822
  16        5D-1        0.00113  -0.00143   0.00372   0.00111   0.00169
  17        5D+2        0.00199  -0.00731   0.00034   0.00217   0.00704
  18        5D-2        0.00604   0.00222  -0.00037  -0.00243  -0.03568
  19 2   N  1S         -0.03102  -0.02088   0.01845  -0.07528   0.00046
  20        2S         -0.04911  -0.03344   0.02948  -0.11987   0.00052
  21        2PX         0.00567  -0.00331  -0.02589   0.20906   0.02364
  22        2PY        -0.01952   0.12859   0.01427   0.02078  -0.13311
  23        2PZ         0.02133  -0.00190   0.13236   0.02585   0.06499
  24        3S          0.14279   0.09932  -0.08695   0.34062  -0.00046
  25        3PX         0.00993  -0.01025  -0.03531   0.28189   0.03660
  26        3PY        -0.03100   0.19822   0.02319   0.02483  -0.20015
  27        3PZ         0.03416  -0.00296   0.20494   0.03896   0.09746
  28        4S          0.13229   0.08885  -0.09483   0.58373  -0.08485
  29        4PX        -0.00099   0.00304  -0.02088   0.14436   0.06185
  30        4PY        -0.01108   0.10454   0.01275   0.00859  -0.16026
  31        4PZ         0.01244   0.00032   0.10792   0.02477   0.08361
  32        5D 0       -0.00026   0.00083  -0.00151   0.01284  -0.00098
  33        5D+1       -0.00709   0.00045  -0.03372  -0.00525  -0.01040
  34        5D-1       -0.00150  -0.00030  -0.00654  -0.00182  -0.00200
  35        5D+2       -0.00262   0.01089   0.00413  -0.02322  -0.00673
  36        5D-2        0.00612  -0.03125  -0.00370  -0.00478   0.01971
  37 3   N  1S         -0.04593  -0.02757   0.02577   0.00263  -0.02880
  38        2S         -0.07232  -0.04404   0.04109   0.00413  -0.04601
  39        2PX        -0.15405  -0.04298   0.03295   0.06805  -0.04542
  40        2PY        -0.07877   0.09839   0.02095  -0.00249   0.15011
  41        2PZ         0.06752   0.00149   0.09630   0.00415  -0.08135
  42        3S          0.19977   0.12829  -0.12009  -0.00745   0.12898
  43        3PX        -0.22195  -0.05767   0.04337   0.10074  -0.06338
  44        3PY        -0.11758   0.15289   0.03319  -0.00558   0.21874
  45        3PZ         0.10231   0.00476   0.14977   0.00718  -0.11481
  46        4S          0.25761   0.16990  -0.14374  -0.05558   0.30780
  47        4PX        -0.07649  -0.03487   0.02901   0.05674  -0.03427
  48        4PY        -0.05468   0.08643   0.02489   0.00107   0.19912
  49        4PZ         0.05453   0.01182   0.08403  -0.00185  -0.08782
  50        5D 0        0.01164   0.00285   0.00874  -0.00289  -0.00089
  51        5D+1       -0.00459  -0.00324   0.02701   0.00812  -0.00523
  52        5D-1       -0.01276   0.00596  -0.00082   0.00095   0.01230
  53        5D+2       -0.01991   0.00026   0.00118   0.00691   0.00050
  54        5D-2        0.00142   0.02626   0.00135  -0.00677   0.00446
  55 4   H  1S          0.16008  -0.00034  -0.00879  -0.03010  -0.08666
  56        2S          0.19558  -0.01092  -0.00570  -0.03976  -0.15108
  57        3S          0.03673   0.00045  -0.00458  -0.01530  -0.04888
  58        4PX         0.00523  -0.00660   0.00420   0.00336  -0.01599
  59        4PY         0.01462   0.00561   0.00241  -0.00206   0.00036
  60        4PZ        -0.01387   0.00190   0.00762   0.00184   0.00476
  61 5   H  1S          0.01264   0.02969  -0.00418  -0.01173   0.11176
  62        2S          0.01722   0.04211  -0.00754  -0.02131   0.18081
  63        3S          0.00971   0.02408  -0.00470  -0.01017   0.15528
  64        4PX        -0.00040   0.00165   0.00014  -0.00048   0.00070
  65        4PY        -0.00234  -0.00123   0.00096   0.00114  -0.00175
  66        4PZ         0.00032  -0.00004   0.00132   0.00013  -0.00064
                          11        12        13        14        15
                           O         O         V         V         V
     Eigenvalues --    -0.32105  -0.23396  -0.03620   0.00864   0.03800
   1 1   N  1S         -0.00590  -0.00791   0.00459   0.00217  -0.00902
   2        2S         -0.00968  -0.01293   0.00689   0.00352  -0.01459
   3        2PX        -0.01843  -0.01458  -0.01452  -0.02826  -0.01034
   4        2PY        -0.00738  -0.05068   0.14794   0.15839  -0.03579
   5        2PZ        -0.02461  -0.01184  -0.15481   0.17005   0.02278
   6        3S          0.03260   0.03789  -0.00193  -0.00913   0.02615
   7        3PX        -0.02676  -0.01830  -0.03842  -0.04604  -0.04601
   8        3PY        -0.00914  -0.07799   0.22696   0.24529  -0.05484
   9        3PZ        -0.03638  -0.01879  -0.24000   0.26337   0.03404
  10        4S          0.01956   0.05934  -0.20207  -0.05227   0.14853
  11        4PX        -0.00249  -0.03273   0.13702  -0.06040   0.31595
  12        4PY        -0.01134  -0.09613   0.34022   0.38137  -0.07947
  13        4PZ        -0.02687  -0.02185  -0.33321   0.41120   0.08803
  14        5D 0       -0.00368   0.00191  -0.00090   0.00067   0.01354
  15        5D+1       -0.04741   0.00741   0.02134  -0.00720   0.00199
  16        5D-1       -0.00653   0.00294   0.00214  -0.00197  -0.00509
  17        5D+2        0.00511  -0.01212   0.00823   0.00500  -0.02150
  18        5D-2       -0.01835   0.03288  -0.01521  -0.00335  -0.01172
  19 2   N  1S          0.00024   0.00208  -0.00223  -0.00088   0.01313
  20        2S          0.00043   0.00363  -0.00400  -0.00146   0.02188
  21        2PX         0.02508  -0.01043   0.01306   0.02128   0.03759
  22        2PY        -0.06152   0.12498  -0.14476  -0.12986   0.04185
  23        2PZ        -0.15877   0.02445   0.15596  -0.14342  -0.02617
  24        3S         -0.00292  -0.01632   0.01852   0.00566  -0.09300
  25        3PX         0.03597  -0.01538   0.01542   0.02966   0.05532
  26        3PY        -0.09189   0.18396  -0.20838  -0.18438   0.06330
  27        3PZ        -0.23664   0.03537   0.22282  -0.20274  -0.03976
  28        4S          0.00382   0.02699  -0.10098   0.00269  -0.28850
  29        4PX         0.03206  -0.03857   0.08194   0.06029   0.14017
  30        4PY        -0.08762   0.21564  -0.32889  -0.33977   0.12485
  31        4PZ        -0.22851   0.04422   0.36986  -0.37745  -0.06830
  32        5D 0        0.00068   0.00089  -0.00108   0.00016  -0.00111
  33        5D+1        0.01879  -0.00124   0.00560  -0.00946  -0.00048
  34        5D-1        0.00389  -0.00019   0.00110  -0.00207  -0.00106
  35        5D+2       -0.00395   0.00135   0.00411   0.00400   0.00183
  36        5D-2        0.00596  -0.00803  -0.00484  -0.00877   0.00167
  37 3   N  1S          0.02466   0.02988   0.02118   0.00450   0.03557
  38        2S          0.03960   0.04810   0.03358   0.00717   0.05618
  39        2PX         0.02054   0.03534   0.07569   0.02986  -0.00540
  40        2PY         0.07704  -0.11622  -0.04949  -0.12005   0.11294
  41        2PZ         0.19943  -0.03051   0.04149  -0.11562  -0.08018
  42        3S         -0.11931  -0.14855  -0.08279  -0.01807  -0.15192
  43        3PX         0.02661   0.04228   0.10807   0.04095  -0.05298
  44        3PY         0.11504  -0.16952  -0.06822  -0.16876   0.14312
  45        3PZ         0.29225  -0.05009   0.05013  -0.15990  -0.10136
  46        4S         -0.16314  -0.25416  -0.24240  -0.08072  -0.56744
  47        4PX         0.03347   0.06450   0.24213   0.08117   0.26570
  48        4PY         0.13366  -0.20252  -0.08815  -0.31220   0.37087
  49        4PZ         0.31989  -0.04731   0.09408  -0.31727  -0.25733
  50        5D 0        0.01265  -0.00973  -0.00326  -0.00677  -0.00037
  51        5D+1        0.01475  -0.00194  -0.01710   0.01607  -0.00534
  52        5D-1       -0.00355  -0.00367  -0.00662   0.00097   0.00148
  53        5D+2        0.00377  -0.00325   0.00051  -0.00683   0.00387
  54        5D-2        0.00415  -0.02202   0.01597   0.01038   0.00884
  55 4   H  1S          0.02982   0.00628   0.08931  -0.00084   0.04253
  56        2S          0.04330   0.00328   0.19638  -0.00750  -0.05561
  57        3S          0.01846   0.02737   0.34042   0.08291   1.55416
  58        4PX         0.00552   0.00461  -0.00184   0.00343  -0.01861
  59        4PY         0.01144  -0.00947  -0.00416  -0.01751  -0.01598
  60        4PZ         0.01590  -0.00387   0.00204  -0.01559   0.01766
  61 5   H  1S          0.07674   0.20358   0.02954   0.02997  -0.03323
  62        2S          0.12283   0.38001   0.05821   0.05254  -0.07265
  63        3S          0.11599   0.44174   0.09003   0.17558  -0.19408
  64        4PX        -0.00107  -0.00437  -0.00256  -0.00144  -0.00047
  65        4PY         0.00259   0.00520   0.00691   0.00699  -0.00430
  66        4PZ         0.00435   0.00264   0.00436  -0.00189  -0.00059
                          16        17        18        19        20
                           V         V         V         V         V
     Eigenvalues --     0.22644   0.25767   0.36715   0.42010   0.45493
   1 1   N  1S         -0.06514   0.02827  -0.00060   0.00890   0.04842
   2        2S         -0.10572   0.04734   0.00124   0.01939   0.09148
   3        2PX        -0.07220   0.03664   0.03754   0.15009  -0.05661
   4        2PY         0.02828  -0.04504  -0.04531   0.04773   0.03031
   5        2PZ        -0.02957   0.00137   0.05255  -0.02415  -0.02411
   6        3S          0.24943  -0.16312  -0.07402  -0.22001  -0.66177
   7        3PX        -0.11778   0.03593   0.09945   0.23587  -0.05001
   8        3PY         0.04287  -0.08398  -0.08353   0.09783   0.10489
   9        3PZ        -0.04073  -0.00432   0.08837  -0.08116  -0.06354
  10        4S          2.57609  -0.87666   0.26853   1.28438  -1.86653
  11        4PX        -0.42203   0.42195   0.05330   5.07385  -1.65182
  12        4PY         0.20907  -0.02011  -0.24619   0.61863  -0.43497
  13        4PZ        -0.17225   0.09958   0.29299   0.27105   0.07145
  14        5D 0        0.03072  -0.01231   0.00753   0.00643   0.00513
  15        5D+1       -0.00891  -0.00070   0.02060  -0.00565  -0.00942
  16        5D-1        0.00124   0.00052  -0.02113   0.00874  -0.00070
  17        5D+2       -0.05284   0.01743  -0.00821  -0.01244  -0.01121
  18        5D-2       -0.01435  -0.00682  -0.01641   0.00534   0.00801
  19 2   N  1S          0.04406  -0.00952   0.01213   0.04547   0.00352
  20        2S          0.07485  -0.01536   0.02136   0.07740   0.01705
  21        2PX         0.14467  -0.04242   0.02990   0.01704   0.06536
  22        2PY        -0.00145  -0.00630   0.00348  -0.00605   0.00605
  23        2PZ         0.01976  -0.00170  -0.00126  -0.00276   0.00964
  24        3S         -0.30242   0.04174  -0.09320  -0.24948  -0.33285
  25        3PX         0.21763  -0.04560   0.05654   0.03273   0.33343
  26        3PY         0.00046  -0.03424  -0.03816  -0.01662   0.07615
  27        3PZ         0.02670   0.00008   0.04168  -0.02099   0.01484
  28        4S         -0.57946   0.02707  -0.13104  -4.93063   2.78523
  29        4PX         0.58156  -0.16709   0.12317   2.71412  -2.12191
  30        4PY        -0.02391   0.07911   0.22933   0.64913  -0.45028
  31        4PZ         0.09186  -0.03769  -0.21505   0.00192  -0.02642
  32        5D 0       -0.00103  -0.00071  -0.00044   0.00232   0.02005
  33        5D+1        0.00382   0.00040  -0.01064   0.00787   0.00831
  34        5D-1        0.00157   0.00053  -0.00482   0.00229   0.00032
  35        5D+2        0.00429  -0.00569  -0.00470  -0.00045  -0.02634
  36        5D-2       -0.00463   0.00664   0.00995  -0.00800  -0.02759
  37 3   N  1S          0.04551  -0.01687   0.02383  -0.01691   0.01049
  38        2S          0.07542  -0.02831   0.04245  -0.02128   0.02389
  39        2PX        -0.20361   0.05563   0.03399  -0.05132  -0.08488
  40        2PY        -0.02879   0.02240   0.07529  -0.03655  -0.04003
  41        2PZ         0.00851   0.01569  -0.09469   0.00341   0.02696
  42        3S         -0.23710   0.10988  -0.17305  -0.15532  -0.20961
  43        3PX        -0.30856   0.05561   0.02074  -0.25038  -0.38773
  44        3PY        -0.02103   0.06813   0.13975  -0.08549  -0.11357
  45        3PZ         0.00754   0.02906  -0.20537  -0.00173   0.07073
  46        4S         -1.21497   0.38055  -0.46771   4.33233  -0.41735
  47        4PX        -1.11064   0.66192   0.61346   2.51724   0.38152
  48        4PY        -0.18353  -0.16319   0.73775  -0.39185   0.24904
  49        4PZ        -0.06403  -0.01809  -0.61927   0.66702  -0.16219
  50        5D 0       -0.00554   0.01531  -0.00071   0.00909   0.01460
  51        5D+1       -0.00664   0.00661  -0.00713  -0.01500  -0.00540
  52        5D-1        0.00277  -0.00176  -0.01374  -0.00630   0.00493
  53        5D+2        0.01543  -0.00259  -0.00867  -0.02612  -0.03168
  54        5D-2        0.01573   0.00063   0.00590   0.00832   0.00071
  55 4   H  1S          0.01473  -0.01080   0.12744  -0.02781  -0.01419
  56        2S          0.16370   0.06721   1.96573  -0.81646  -0.02730
  57        3S         -0.59909  -0.14049  -0.90623   0.35900   0.04424
  58        4PX        -0.02732   0.00140   0.03177  -0.00862   0.03331
  59        4PY         0.02023   0.02553  -0.00500  -0.02950   0.00347
  60        4PZ        -0.01448   0.00919   0.00168   0.02250  -0.00696
  61 5   H  1S         -0.03637  -0.11309   0.01665  -0.00038   0.00665
  62        2S         -0.39155  -1.22423   0.09222   0.09612   0.11567
  63        3S          0.50536   1.67657   0.00096  -0.00537  -0.14857
  64        4PX        -0.00889   0.00545   0.02337   0.04182   0.03120
  65        4PY        -0.00292   0.00829   0.02883   0.00280   0.00141
  66        4PZ        -0.00373  -0.00024  -0.02559   0.02499  -0.00399
                          21        22        23        24        25
                           V         V         V         V         V
     Eigenvalues --     0.50154   0.52675   0.60439   0.64513   0.67513
   1 1   N  1S         -0.00610  -0.00014  -0.01661  -0.03047   0.04031
   2        2S         -0.01165  -0.00007  -0.03246  -0.05929   0.07808
   3        2PX        -0.01840   0.01053  -0.03582   0.01440  -0.10585
   4        2PY        -0.04614  -0.10600  -0.00871   0.07077   0.05217
   5        2PZ        -0.10653   0.03082   0.02366   0.00784   0.01922
   6        3S          0.07473   0.00119   0.21625   0.37565  -0.49362
   7        3PX        -0.01995   0.03359  -0.08692   0.20034  -0.50325
   8        3PY        -0.17452  -0.44721  -0.03220   0.25168   0.18291
   9        3PZ        -0.43354   0.14148   0.09657   0.04251   0.04819
  10        4S         -0.30568  -0.12261  -0.76082  -0.76238   0.45923
  11        4PX        -0.31925   0.29646   1.12638   0.12313   1.49101
  12        4PY         0.18526   0.67989   0.27775  -0.36671  -0.40344
  13        4PZ         0.51735  -0.21683  -0.29884  -0.14757  -0.16281
  14        5D 0        0.00812   0.00710   0.01136  -0.00042  -0.00479
  15        5D+1       -0.00379   0.00174   0.06625  -0.01457   0.01883
  16        5D-1       -0.00585   0.00876   0.02198   0.00563   0.00384
  17        5D+2        0.00065   0.00730  -0.01538  -0.00175   0.01304
  18        5D-2       -0.00326  -0.01754   0.00439  -0.04575  -0.04833
  19 2   N  1S         -0.00684   0.00299  -0.01569  -0.04248   0.05062
  20        2S         -0.01210   0.00560  -0.02987  -0.08201   0.09909
  21        2PX         0.01782   0.03052   0.02366   0.12145  -0.12534
  22        2PY        -0.03897  -0.15117   0.03048  -0.10025  -0.11348
  23        2PZ        -0.12611   0.05289   0.13164  -0.01792  -0.00336
  24        3S          0.04702  -0.04269   0.17652   0.58921  -0.77004
  25        3PX         0.06524   0.11078   0.09963   0.39877  -0.33019
  26        3PY        -0.14185  -0.53824   0.11830  -0.34690  -0.38645
  27        3PZ        -0.45602   0.18306   0.45893  -0.07222  -0.00979
  28        4S          0.36840  -0.22782  -0.76913  -0.53896  -0.10053
  29        4PX        -0.33795  -0.06542   0.03746  -0.35581   0.24731
  30        4PY         0.08518   0.62299  -0.17284   0.70286   0.79745
  31        4PZ         0.49919  -0.19406  -0.61836   0.17542   0.05321
  32        5D 0       -0.00029  -0.00004  -0.00275  -0.00293   0.01192
  33        5D+1        0.03380  -0.01091  -0.02507   0.00493  -0.00467
  34        5D-1        0.00743  -0.00204  -0.00096   0.00345   0.00148
  35        5D+2       -0.00460  -0.01361   0.00366   0.00342  -0.02540
  36        5D-2        0.01218   0.03640  -0.00516   0.01146   0.00253
  37 3   N  1S         -0.00495   0.00487  -0.01387   0.00697  -0.01278
  38        2S         -0.00967   0.00971  -0.02473   0.01401  -0.02349
  39        2PX        -0.01272  -0.00183  -0.05324  -0.06309   0.02485
  40        2PY        -0.03245  -0.08602  -0.00578   0.13333   0.07433
  41        2PZ        -0.12647   0.04109  -0.16461  -0.00011  -0.03922
  42        3S          0.06306  -0.07833   0.07537  -0.17434   0.16676
  43        3PX        -0.00726   0.00743  -0.11789  -0.16218   0.05730
  44        3PY        -0.12988  -0.28651  -0.03277   0.47183   0.24648
  45        3PZ        -0.43752   0.12795  -0.58122   0.03819  -0.13687
  46        4S         -0.10216   0.31826   1.34437   0.91422   0.81885
  47        4PX        -0.15233   0.13022   0.54463   0.44217  -0.01770
  48        4PY         0.09966   0.16811  -0.34289  -0.91110  -0.41506
  49        4PZ         0.44941  -0.00638   1.34660   0.24938   0.44543
  50        5D 0       -0.01251   0.00061  -0.01689  -0.01477  -0.00072
  51        5D+1       -0.02504   0.00955  -0.03640  -0.00321  -0.01684
  52        5D-1       -0.00312   0.00445  -0.00026  -0.00070  -0.00116
  53        5D+2        0.01089  -0.00181   0.02273   0.01082  -0.00549
  54        5D-2       -0.00269  -0.02027   0.01101   0.03709   0.02680
  55 4   H  1S          0.00727  -0.02509   0.00125   0.00873   0.01521
  56        2S          0.00494  -0.31598  -0.57140  -0.36046  -0.12907
  57        3S         -0.16287   0.50352  -0.02511  -0.26257  -0.30111
  58        4PX        -0.01891  -0.01241  -0.09951  -0.03607  -0.04939
  59        4PY        -0.01309   0.01433  -0.02029  -0.07091  -0.02829
  60        4PZ         0.00581  -0.02082   0.02716   0.02940   0.00570
  61 5   H  1S          0.00174   0.01253  -0.00975  -0.00332   0.02007
  62        2S         -0.03097   0.10868  -0.08574   0.13379   0.03779
  63        3S         -0.04693  -0.33432   0.12599   0.16816   0.07647
  64        4PX         0.00872   0.02906   0.00179  -0.02501  -0.06458
  65        4PY         0.00007  -0.01068  -0.00861   0.01189   0.00387
  66        4PZ         0.02398   0.00283   0.08193   0.02129   0.02611
                          26        27        28        29        30
                           V         V         V         V         V
     Eigenvalues --     0.68945   0.74210   0.76895   0.92513   1.02705
   1 1   N  1S         -0.00545   0.01025  -0.04764  -0.00211  -0.00337
   2        2S         -0.01057   0.02047  -0.09307  -0.00503  -0.00936
   3        2PX        -0.02371  -0.00869  -0.11312  -0.29230  -0.14649
   4        2PY        -0.08136  -0.14202  -0.01541  -0.02321   0.01629
   5        2PZ         0.16744  -0.09103  -0.03668  -0.01173  -0.02744
   6        3S          0.06716  -0.15464   0.71811   0.13900   0.12303
   7        3PX        -0.12951  -0.01993  -0.48107  -0.27391  -0.45863
   8        3PY        -0.28430  -0.48774  -0.05909  -0.03670   0.07323
   9        3PZ         0.56649  -0.30759  -0.13217   0.01686  -0.11043
  10        4S         -0.53938  -0.07576  -1.62276  -1.68056   0.50001
  11        4PX         1.99694   0.86348   2.39023  -2.18630  10.63517
  12        4PY         1.00642   1.65635   0.02514  -0.31138   0.81144
  13        4PZ        -1.45927   0.82825   0.70651  -0.15755   0.80868
  14        5D 0        0.00540   0.01171   0.01098  -0.00114  -0.00495
  15        5D+1       -0.01823   0.00131  -0.00144  -0.05571   0.03815
  16        5D-1        0.01855   0.01607  -0.02630  -0.00100   0.04336
  17        5D+2       -0.01459  -0.00610  -0.01939  -0.02610   0.00742
  18        5D-2       -0.00759  -0.01851  -0.01593   0.08928  -0.05520
  19 2   N  1S          0.00232   0.01042  -0.00798  -0.04182  -0.03307
  20        2S          0.00417   0.02089  -0.01817  -0.07677  -0.06749
  21        2PX        -0.00399  -0.03762  -0.00714  -0.22780  -0.01485
  22        2PY         0.05302   0.04838   0.00631  -0.06303   0.02125
  23        2PZ        -0.12710   0.04911   0.00363   0.00504  -0.01147
  24        3S         -0.04962  -0.17872   0.09655   0.41797   0.55884
  25        3PX         0.02243  -0.07681  -0.08947  -0.62517   0.24853
  26        3PY         0.19350   0.19838  -0.01026  -0.14339   0.06950
  27        3PZ        -0.45097   0.17451   0.03306  -0.00448  -0.00317
  28        4S         -1.38268  -0.60037  -1.25651   2.18746  -9.29753
  29        4PX         0.44952   0.36401   0.32658  -0.41623   3.23646
  30        4PY        -0.39629  -0.73870   0.21059  -0.17564   1.05737
  31        4PZ         1.16737  -0.53215  -0.28267   0.09473  -0.23533
  32        5D 0        0.00113   0.01293  -0.01890   0.02985   0.02472
  33        5D+1        0.00390  -0.00183  -0.00665   0.02264  -0.03873
  34        5D-1        0.00518   0.00321  -0.00936   0.00539  -0.00627
  35        5D+2       -0.00164  -0.00917   0.02561  -0.03385  -0.07332
  36        5D-2       -0.00138  -0.00767   0.02149  -0.05680   0.03696
  37 3   N  1S         -0.00712   0.01203  -0.05785   0.06456   0.05300
  38        2S         -0.01186   0.02467  -0.11393   0.12249   0.10694
  39        2PX        -0.02457   0.00163  -0.17709  -0.19147   0.03486
  40        2PY         0.03239   0.14227  -0.02184   0.01046  -0.03925
  41        2PZ        -0.02359   0.03050   0.06222  -0.03800   0.02408
  42        3S         -0.01601  -0.25427   0.89750  -0.82992  -1.00113
  43        3PX        -0.09384  -0.03488  -0.36391  -0.50781   0.26989
  44        3PY         0.09723   0.49412  -0.00295  -0.02838  -0.17999
  45        3PZ        -0.05923   0.17230   0.15249  -0.03520   0.21467
  46        4S          1.85854   1.51804   0.30406  -0.23043   9.51024
  47        4PX         0.95906   0.38368   1.84549   0.21637   3.48648
  48        4PY        -0.67523  -1.61286   0.54437   0.12571  -0.36781
  49        4PZ         0.89337  -0.10852  -0.77385  -0.02211   0.70546
  50        5D 0       -0.00417  -0.00409  -0.04186  -0.03003  -0.04154
  51        5D+1       -0.01038  -0.01181   0.04090   0.03416  -0.06588
  52        5D-1        0.00058  -0.00107   0.01545  -0.01807   0.01788
  53        5D+2       -0.00168  -0.01817   0.07770   0.04259   0.02995
  54        5D-2        0.01794   0.03439  -0.00537  -0.05255   0.09444
  55 4   H  1S          0.03265   0.02644  -0.01242  -0.03500   0.09928
  56        2S         -0.51412  -0.49467   0.65700   0.03238  -0.87004
  57        3S          0.17885  -0.30102   0.88549  -0.10249  -0.03981
  58        4PX        -0.14784  -0.07879   0.02081   0.04950  -0.31944
  59        4PY        -0.02771  -0.10933   0.14099  -0.06418  -0.10842
  60        4PZ        -0.00668   0.02214  -0.16824   0.08520   0.03116
  61 5   H  1S         -0.00031  -0.00106   0.02715  -0.03404  -0.00292
  62        2S          0.09830   0.35868   0.11970  -0.03545  -0.17461
  63        3S          0.01802  -0.03866   0.05378   0.03108   0.11865
  64        4PX         0.01760   0.01423  -0.01351   0.11430   0.19601
  65        4PY         0.01100   0.03516   0.13828  -0.04827  -0.07993
  66        4PZ         0.06437   0.02631  -0.03627  -0.02351   0.09513
                          31        32        33        34        35
                           V         V         V         V         V
     Eigenvalues --     1.11608   1.22140   1.34834   1.38181   1.45896
   1 1   N  1S          0.07937  -0.01147  -0.00659  -0.00405   0.00014
   2        2S          0.15256  -0.02232  -0.01372  -0.00877  -0.00017
   3        2PX        -0.11576  -0.00344  -0.05709  -0.03407   0.03807
   4        2PY        -0.04829   0.00601  -0.02939  -0.01637   0.00492
   5        2PZ         0.00665   0.00014  -0.00736   0.00626   0.00215
   6        3S         -1.33569   0.21933   0.08729   0.06667   0.04070
   7        3PX        -0.00896  -0.02596  -0.20809  -0.17084   0.17849
   8        3PY        -0.03787  -0.01078  -0.06147  -0.05310   0.01547
   9        3PZ         0.00147  -0.02752  -0.01562   0.01676  -0.05988
  10        4S          7.26628  -1.36863   0.52953   0.15946  -1.55360
  11        4PX         1.59017   0.90488   3.02978   4.12788  -3.56034
  12        4PY         0.59779   0.15228   0.47991   0.71462  -0.47114
  13        4PZ        -0.07561   0.25990   0.21427   0.03235   0.13544
  14        5D 0       -0.10972   0.13706   0.00643   0.00945   0.02226
  15        5D+1        0.02794   0.04823   0.00781  -0.00175   0.40493
  16        5D-1       -0.00632   0.01808  -0.05748   0.07490   0.07702
  17        5D+2        0.21213   0.00411   0.01006  -0.00805  -0.07785
  18        5D-2        0.04984   0.02748   0.00522   0.01367   0.13883
  19 2   N  1S         -0.07459   0.00751  -0.01051  -0.00544   0.00667
  20        2S         -0.14279   0.01390  -0.02203  -0.01229   0.01465
  21        2PX        -0.13710   0.01557  -0.00107   0.01801  -0.01754
  22        2PY        -0.02679  -0.00406   0.01094   0.00729  -0.03787
  23        2PZ        -0.00199  -0.01588  -0.00585  -0.00220  -0.06635
  24        3S          1.20245  -0.12831   0.19783   0.12625  -0.16817
  25        3PX         0.05079  -0.00216   0.04192   0.09948  -0.11184
  26        3PY         0.01555  -0.01024   0.02796   0.02781  -0.07428
  27        3PZ        -0.00189  -0.02213  -0.00511  -0.00584  -0.11166
  28        4S         -5.56418  -0.04712  -2.87091  -3.56975   3.64276
  29        4PX         2.59662  -0.07607   1.07968   1.28526  -1.35653
  30        4PY         0.42457  -0.00772   0.19972   0.24404  -0.32234
  31        4PZ         0.04007  -0.07975  -0.03972   0.02174  -0.07185
  32        5D 0        0.09012   0.01487   0.00976   0.00756  -0.00797
  33        5D+1       -0.00501  -0.04028  -0.01286  -0.00893  -0.25822
  34        5D-1       -0.00159  -0.00818  -0.02349   0.02427  -0.05452
  35        5D+2       -0.13730   0.03317  -0.01464  -0.00738   0.06780
  36        5D-2       -0.05821  -0.00019   0.00230  -0.00963  -0.10867
  37 3   N  1S         -0.02161   0.01675   0.00271   0.00501  -0.00265
  38        2S         -0.04192   0.03434   0.00375   0.01161  -0.00637
  39        2PX         0.00841  -0.01069  -0.04614  -0.01146  -0.00255
  40        2PY        -0.00272   0.00228  -0.00238   0.00063   0.02500
  41        2PZ         0.01001  -0.00907   0.00578  -0.03279   0.08225
  42        3S          0.48187  -0.35018  -0.02735  -0.19915   0.09785
  43        3PX        -0.08890   0.04525  -0.06635   0.01648  -0.14214
  44        3PY         0.02041  -0.06757  -0.04185   0.03115   0.08571
  45        3PZ        -0.06046   0.03629   0.07778  -0.04335   0.09478
  46        4S         -1.94833   1.79152   2.09061   3.54196  -2.40145
  47        4PX        -0.91140   0.63770   0.99590   1.45177  -0.38198
  48        4PY         0.00208  -0.28307  -0.01965  -0.53047   0.07155
  49        4PZ        -0.15585  -0.09520  -0.02534   0.62212  -0.38274
  50        5D 0        0.04491   0.23999   0.02702  -0.01803  -0.14351
  51        5D+1       -0.02980  -0.09306  -0.00652  -0.01746  -0.36142
  52        5D-1        0.00527  -0.00951  -0.09745   0.04121   0.05763
  53        5D+2       -0.00984   0.16652  -0.01744  -0.02554  -0.00876
  54        5D-2        0.03849  -0.00609  -0.02575  -0.05765  -0.10674
  55 4   H  1S         -0.01359   0.03242   0.11623  -0.02473   0.09325
  56        2S          0.34633  -0.29840  -0.14322  -0.44802   0.12998
  57        3S         -0.04269   0.00752   0.11740   0.03655   0.06278
  58        4PX        -0.07913  -0.11205   0.29418   0.02349  -0.35583
  59        4PY         0.14556   0.52453  -0.15711  -0.02855   0.13964
  60        4PZ        -0.07013   0.59116   0.12349   0.12470  -0.20848
  61 5   H  1S          0.03281   0.06689  -0.00376  -0.01507  -0.03107
  62        2S          0.12302   0.04037  -0.02602   0.00783   0.07268
  63        3S         -0.12782  -0.08618   0.05068   0.09369   0.05724
  64        4PX        -0.15974  -0.18038  -0.63095  -0.28632  -0.01270
  65        4PY         0.13955   0.21537  -0.52917  -0.20320  -0.31530
  66        4PZ        -0.00820   0.07598   0.37177  -0.90689   0.00127
                          36        37        38        39        40
                           V         V         V         V         V
     Eigenvalues --     1.49295   1.64438   1.65599   1.70209   1.79551
   1 1   N  1S         -0.00950   0.00147  -0.00088   0.00039  -0.00391
   2        2S         -0.01907   0.00228  -0.00188  -0.00022  -0.00711
   3        2PX         0.02020   0.04078  -0.00179   0.05889  -0.01758
   4        2PY        -0.00785   0.02757  -0.01325   0.01977   0.02713
   5        2PZ        -0.00977  -0.03107  -0.01121  -0.01210  -0.01805
   6        3S          0.27656  -0.01834   0.01638   0.04992   0.09106
   7        3PX         0.20774   0.02440  -0.03631   0.02180  -0.05312
   8        3PY         0.07638   0.03953  -0.02816   0.01332   0.02144
   9        3PZ        -0.00878  -0.04708  -0.01680  -0.01407   0.00151
  10        4S         -3.57387  -0.19759   0.15200  -1.05298  -0.27264
  11        4PX        -4.11497  -0.42129   1.10932   1.58402   2.21036
  12        4PY        -0.93479  -0.29393   0.13922  -0.08976  -0.05674
  13        4PZ        -0.05478   0.26673   0.06512   0.40613  -0.13507
  14        5D 0       -0.01663   0.00967  -0.61204  -0.01882   0.11162
  15        5D+1       -0.06544  -0.21449   0.04477  -0.23125   0.18346
  16        5D-1        0.02996   0.59098   0.04660  -0.39008   0.00423
  17        5D+2       -0.02686   0.04182  -0.37524  -0.04832  -0.02021
  18        5D-2       -0.35592   0.11539  -0.00470   0.26412   0.14021
  19 2   N  1S          0.00989   0.00376  -0.00032   0.00689   0.00147
  20        2S          0.02012   0.00876  -0.00104   0.01447   0.00192
  21        2PX        -0.05292   0.00929   0.01397   0.03071   0.02551
  22        2PY         0.04921  -0.01699  -0.01675  -0.03668  -0.00644
  23        2PZ         0.01484   0.01911  -0.00817   0.05294  -0.03771
  24        3S         -0.26427  -0.06880   0.02010  -0.11499  -0.00619
  25        3PX        -0.25151   0.04186   0.04081   0.09807   0.05167
  26        3PY         0.04728  -0.02091  -0.02677  -0.04995  -0.02018
  27        3PZ         0.02152   0.03095  -0.01301   0.08452  -0.05554
  28        4S          5.08301   0.47622  -0.97929  -0.78534  -1.61475
  29        4PX        -1.97149  -0.21386   0.34909   0.17494   0.52774
  30        4PY        -0.36511   0.04143   0.10122   0.18952   0.26603
  31        4PZ        -0.02771  -0.10945  -0.00807  -0.17326   0.11269
  32        5D 0       -0.05340   0.02115  -0.46036  -0.00561   0.13467
  33        5D+1        0.04020  -0.02870  -0.04616   0.29374  -0.17608
  34        5D-1        0.02527   0.42984   0.01243  -0.28910  -0.10774
  35        5D+2       -0.08188   0.05740  -0.21041   0.09580   0.07953
  36        5D-2        0.20797  -0.05094  -0.19318  -0.17099   0.01661
  37 3   N  1S          0.03036  -0.02080   0.00371  -0.00616   0.02362
  38        2S          0.06146  -0.04361   0.00778  -0.00943   0.04970
  39        2PX        -0.02861   0.00294   0.00350   0.03637  -0.01169
  40        2PY        -0.06723  -0.01591  -0.00256  -0.00975  -0.04088
  41        2PZ        -0.01158   0.01955  -0.00111   0.01749   0.06215
  42        3S         -0.53242   0.33419  -0.09839  -0.06053  -0.53257
  43        3PX        -0.09068  -0.10272   0.05257   0.03880   0.15736
  44        3PY        -0.16644  -0.14410  -0.05374  -0.03855  -0.15885
  45        3PZ        -0.04113   0.14136   0.00756   0.06759  -0.00450
  46        4S         -1.20211  -0.66420   0.99320   1.68341   2.54688
  47        4PX        -0.16973   0.21249   0.24655   1.27404   0.50148
  48        4PY         0.54935   0.43705   0.00696   0.15897   0.58353
  49        4PZ        -0.02861  -0.45157   0.04489  -0.13654   0.45538
  50        5D 0        0.01006   0.05206  -0.09339   0.02541  -0.09304
  51        5D+1        0.00364   0.11451   0.04597   0.11011   0.01261
  52        5D-1        0.08821   0.17633   0.00032   0.10096   0.06482
  53        5D+2        0.01393  -0.00829  -0.06613   0.00649  -0.00002
  54        5D-2        0.33039  -0.13272  -0.02367  -0.14124  -0.17507
  55 4   H  1S          0.07461  -0.18434  -0.03293  -0.33664  -0.36865
  56        2S         -0.11669   0.70117  -0.04768   0.65977   0.27914
  57        3S          0.09359  -0.12972   0.00076  -0.20354  -0.12910
  58        4PX        -0.37876  -0.35506   0.02091  -0.59120   0.14179
  59        4PY         0.06965  -0.17014   0.07404   0.05103  -0.32636
  60        4PZ        -0.29737   0.10572   0.16478  -0.08883  -0.13335
  61 5   H  1S          0.01088  -0.01431  -0.02902  -0.02645  -0.46607
  62        2S         -0.04184   0.01634   0.04171   0.03063   0.38593
  63        3S         -0.13151   0.01255  -0.09995   0.06576  -0.45328
  64        4PX        -0.46004  -0.10245  -0.10306  -0.16272  -0.41627
  65        4PY         0.13154  -0.08968   0.16137  -0.14361   0.67362
  66        4PZ        -0.02185   0.13949   0.04019   0.02384   0.07468
                          41        42        43        44        45
                           V         V         V         V         V
     Eigenvalues --     1.84893   2.07704   2.10354   2.17703   2.24229
   1 1   N  1S         -0.00965  -0.00056   0.00365  -0.00186   0.00631
   2        2S         -0.02021  -0.00180   0.00855  -0.00306   0.01820
   3        2PX        -0.00931   0.00097   0.00159   0.01666   0.02385
   4        2PY        -0.03512  -0.04316   0.01430  -0.06618   0.15330
   5        2PZ         0.03619  -0.02331  -0.00352  -0.11777  -0.05177
   6        3S          0.21332   0.00972  -0.04460   0.07455  -0.15813
   7        3PX        -0.08950  -0.01169   0.03876  -0.00472   0.04133
   8        3PY        -0.02475  -0.01497  -0.01691  -0.01682   0.00813
   9        3PZ         0.02020  -0.01958   0.01876  -0.01503   0.00605
  10        4S         -0.87859   0.07798  -0.07748  -0.54384  -0.44837
  11        4PX         2.63507  -0.40772   0.89727   1.19207   1.30665
  12        4PY         0.04801  -0.07039   0.20017  -0.33498   0.52241
  13        4PZ         0.15116  -0.02109   0.09214  -0.36019   0.04972
  14        5D 0        0.03727  -0.41753  -0.11040   0.03687  -0.15020
  15        5D+1       -0.16896   0.00520   0.06780   0.04544  -0.09236
  16        5D-1        0.05738   0.11212  -0.52833   0.04537   0.21809
  17        5D+2       -0.10108  -0.24287  -0.08636  -0.05654   0.11129
  18        5D-2        0.26522  -0.08255  -0.02457   0.10635   0.09004
  19 2   N  1S          0.00056  -0.00151   0.00098   0.00051   0.00841
  20        2S          0.00050  -0.00313   0.00153   0.00041   0.02092
  21        2PX         0.02800  -0.00572   0.01217   0.01487  -0.00034
  22        2PY        -0.04632  -0.00726   0.01531  -0.01421   0.02086
  23        2PZ         0.03330  -0.00240  -0.00386  -0.02869   0.00008
  24        3S         -0.00178   0.02220  -0.00791  -0.00634  -0.18001
  25        3PX         0.05460  -0.02373   0.02231   0.01366   0.17195
  26        3PY        -0.06887  -0.01532   0.01129  -0.03800   0.06137
  27        3PZ         0.04679  -0.00723   0.00409  -0.03907   0.00200
  28        4S         -1.75954   0.29573  -0.70990  -0.67259  -0.83161
  29        4PX         0.55015  -0.09967   0.25768   0.16741   0.22778
  30        4PY         0.32932   0.00504   0.00599   0.28700  -0.18593
  31        4PZ        -0.08920   0.01482  -0.01266   0.24487   0.02025
  32        5D 0        0.08051   0.66207   0.15873  -0.00465  -0.02559
  33        5D+1        0.14212  -0.03125  -0.14376  -0.43519  -0.08261
  34        5D-1        0.27995  -0.18770   0.71716  -0.12430  -0.20868
  35        5D+2        0.14496   0.39001   0.06501   0.14095  -0.05237
  36        5D-2       -0.24564   0.04281   0.09455  -0.30352   0.50039
  37 3   N  1S          0.02990  -0.00630   0.00680   0.01314   0.02362
  38        2S          0.05952  -0.01508   0.02099   0.03183   0.05549
  39        2PX         0.07640  -0.00271  -0.01805  -0.00915   0.02478
  40        2PY         0.09744  -0.01575  -0.05094   0.02589   0.05997
  41        2PZ        -0.08671  -0.03037   0.06100   0.01784  -0.01621
  42        3S         -0.50721   0.14595  -0.25373  -0.34932  -0.52577
  43        3PX         0.25578  -0.04951   0.12312   0.16557   0.04281
  44        3PY         0.08855  -0.07810   0.17836   0.06584   0.21045
  45        3PZ        -0.12974   0.05429  -0.13472  -0.15612  -0.18381
[...]
 Frequencies --   561.4736               628.3343              1166.2920
 Red. masses --     4.8075                 3.9237                 1.6188
 Frc consts  --     0.8930                 0.9127                 1.2974
 IR Inten    --    15.0232                13.4451               175.6460
  Atom  AN      X      Y      Z        X      Y      Z        X      Y      Z
     1   7     0.03  -0.23   0.38    -0.07   0.33   0.23     0.05  -0.05   0.07
     2   7    -0.03   0.13  -0.21     0.03  -0.17  -0.13     0.05   0.01  -0.01
     3   7     0.06   0.07  -0.16     0.00  -0.10  -0.07    -0.16   0.06  -0.08
     4   1    -0.55   0.31  -0.34     0.06  -0.52  -0.47     0.87  -0.32   0.31
     5   1    -0.30   0.19   0.26     0.43  -0.31  -0.06     0.00   0.04  -0.02
                     7                      8                      9
                     A                      A                      A
 Frequencies --  1298.4712              2294.7632              3516.6427
 Red. masses --     3.5401                12.2556                 1.0760
 Frc consts  --     3.5166                38.0242                 7.8403
 IR Inten    --     1.0558               426.2476                58.5682
  Atom  AN      X      Y      Z        X      Y      Z        X      Y      Z
     1   7     0.10   0.03  -0.02     0.73   0.13   0.00    -0.00   0.00  -0.00
     2   7     0.28   0.03   0.01    -0.53  -0.11  -0.00    -0.00  -0.00  -0.00
     3   7    -0.31  -0.07   0.02    -0.17  -0.02   0.00     0.04   0.05  -0.04
     4   1    -0.86   0.08  -0.19    -0.36   0.02  -0.08    -0.46  -0.65   0.60
     5   1    -0.05   0.11   0.02     0.01  -0.02  -0.01     0.00  -0.00  -0.00

 -------------------
 - Thermochemistry -
 -------------------
 Temperature   298.150 Kelvin.  Pressure   1.00000 Atm.
 Atom     1 has atomic number  7 and mass  14.00307
 Atom     2 has atomic number  7 and mass  14.00307
 Atom     3 has atomic number  7 and mass  14.00307
 Atom     4 has atomic number  1 and mass   1.00783
 Atom     5 has atomic number  1 and mass   1.00783
 Molecular mass:    44.02487 amu.
 Principal axes and moments of inertia in atomic units:
                           1         2         3
     Eigenvalues --    13.49504 163.00760 173.07695
           X            0.99876  -0.04315  -0.02490
           Y            0.04268   0.99891  -0.01888
           Z            0.02569   0.01780   0.99951
 This molecule is an asymmetric top.
 Rotational symmetry number  1.
 Rotational temperatures (Kelvin)      6.41820     0.53135     0.50044
 Rotational constants (GHZ):         133.73368    11.07152    10.42739
    1 imaginary frequencies ignored.
 Zero-point vibrational energy      59447.9 (Joules/Mol)
                                   14.20838 (Kcal/Mol)
 Warning -- explicit consideration of   3 degrees of freedom as
           vibrations may cause significant error
 Vibrational temperatures:    223.21   457.23   807.83   904.03  1678.03
          (Kelvin)           1868.21  3301.65  5059.66
 
 Zero-point correction=                           0.022642 (Hartree/Particle)
 Thermal correction to Energy=                    0.026866
 Thermal correction to Enthalpy=                  0.027810
 Thermal correction to Gibbs Free Energy=        -0.002670
 Sum of electronic and zero-point Energies=           -165.201372
 Sum of electronic and thermal Energies=              -165.197148
 Sum of electronic and thermal Enthalpies=            -165.196204
 Sum of electronic and thermal Free Energies=         -165.226684
 
                     E (Thermal)             CV                S
                      KCal/Mol        Cal/Mol-Kelvin    Cal/Mol-Kelvin
 Total                   16.859             11.966             64.150
 Electronic               0.000              0.000              1.377
 Translational            0.889              2.981             37.273
 Rotational               0.889              2.981             20.571
 Vibrational             15.081              6.004              4.929
 Vibration     1          0.620              1.897              2.608
 Vibration     2          0.704              1.640              1.321
 Vibration     3          0.917              1.115              0.521
                       Q            Log10(Q)             Ln(Q)
 Total Bot       0.169010D+02          1.227912          2.827372
 Total V=0       0.439252D+12         11.642714         26.808339
 Vib (Bot)       0.105371D-09         -9.977277        -22.973530
 Vib (Bot)    1  0.130505D+01          0.115626          0.266238
 Vib (Bot)    2  0.592310D+00         -0.227451         -0.523724
 Vib (Bot)    3  0.276414D+00         -0.558439         -1.285854
 Vib (V=0)       0.273857D+01          0.437524          1.007437
 Vib (V=0)    1  0.189755D+01          0.278193          0.640563
 Vib (V=0)    2  0.127513D+01          0.105556          0.243051
 Vib (V=0)    3  0.107132D+01          0.029919          0.068890
 Electronic      0.200000D+01          0.301030          0.693147
 Translational   0.114816D+08          7.060002         16.256256
 Rotational      0.698485D+04          3.844157          8.851499
 
                                                        RC, from TS reverse 7
                                                             IR Spectrum
 
     3                                            2                                   1   1                                          
     5                                            2                                   2   1                   6 5        3     1     
     1                                            9                                   9   6                   2 6        1     5     
     7                                            5                                   8   6                   8 1        8     5     
 
     X                                            X                                   X   X                   X X        X     X     
     X                                            X                                       X                              X           
     X                                            X                                       X                              X           
                                                  X                                       X                                          
                                                  X                                       X                                          
                                                  X                                       X                                          
                                                  X                                       X                                          
                                                  X                                       X                                          
                                                  X                                                                                  
                                                  X                                                                                  
                                                  X                                                                                  
                                                  X                                                                                  
                                                  X                                                                                  
                                                  X                                                                                  
                                                  X                                                                                  
                                                  X                                                                                  
                                                  X                                                                                  
                                                  X                                                                                  
                                                  X                                                                                  
                                                  X                                                                                  
 
 ***** Axes restored to original set *****
 -------------------------------------------------------------------
 Center     Atomic                   Forces (Hartrees/Bohr)
 Number     Number              X              Y              Z
 -------------------------------------------------------------------
      1        7           0.002573797    0.002972917    0.000751228
      2        7          -0.001647566   -0.001630030   -0.000481310
      3        7          -0.003056089   -0.005026557    0.000797231
      4        1          -0.000476076   -0.000121996    0.000329377
      5        1           0.002605933    0.003805667   -0.001396526
 -------------------------------------------------------------------
 Cartesian Forces:  Max     0.005026557 RMS     0.002315829
 Z-matrix is all fixed cartesians, so copy forces.
 Force constants in Cartesian coordinates: 
                1             2             3             4             5 
      1  0.178065D+00
      2 -0.661398D-02  0.126005D+00
      3 -0.222835D+00  0.163407D-01  0.174580D+01
      4 -0.723606D-01  0.624069D-02  0.111652D+00  0.518746D-01
      5  0.875019D-02 -0.660301D-01 -0.339166D-01 -0.489987D-02  0.360322D-01
      6  0.135165D+00 -0.195687D-01 -0.114378D+01 -0.153869D+00  0.261541D-01
      7 -0.105340D+00  0.839553D-02  0.766399D-01  0.208175D-01 -0.804265D-02
      8  0.339619D-02 -0.387130D-01  0.196723D-01 -0.400486D-02  0.183975D-01
      9  0.111183D+00 -0.353108D-02 -0.540296D+00  0.414748D-01  0.946987D-02
     10  0.455468D-02  0.142144D-03  0.342367D-01 -0.170781D-02  0.218314D-04
     11  0.244729D-02 -0.126696D-01  0.434638D-03 -0.420329D-03  0.662705D-02
     12 -0.282087D-01  0.170668D-03 -0.623399D-01  0.203221D-02  0.461648D-03
     13 -0.491951D-02 -0.816438D-02  0.306596D-03  0.137640D-02  0.417050D-02
     14 -0.797969D-02 -0.859229D-02 -0.253107D-02  0.308437D-02  0.497339D-02
     15  0.469532D-02  0.658842D-02  0.611713D-03 -0.128988D-02 -0.216910D-02
                6             7             8             9            10 
      6  0.121165D+01
      7  0.651509D-02  0.347531D+00
      8 -0.167063D-01  0.145673D-03  0.148787D-01
      9 -0.765276D-01  0.902347D-01 -0.254197D-02  0.790894D+00
     10  0.535438D-02 -0.267221D+00 -0.538537D-02 -0.234639D+00  0.263645D+00
     11 -0.765725D-03 -0.410584D-02  0.307979D-03  0.508050D-02  0.265115D-02
     12  0.110765D-01 -0.169971D+00  0.285988D-02 -0.173801D+00  0.195872D+00
     13  0.683449D-02  0.421155D-02  0.584837D-02 -0.825387D-02  0.729098D-03
     14  0.108865D-01  0.360729D-02  0.512879D-02 -0.847732D-02  0.257024D-02
     15 -0.241873D-02 -0.341867D-02 -0.328397D-02 -0.270006D-03 -0.824533D-03
               11            12            13            14            15 
     11  0.455434D-02
     12 -0.277102D-02  0.224010D+00
     13 -0.572274D-03  0.275025D-03 -0.139755D-02
     14  0.118023D-02 -0.721185D-03 -0.128221D-02 -0.269011D-02
     15 -0.197839D-02  0.105424D-02  0.837759D-03  0.843047D-03  0.102278D-02
 Leave Link  716 at Tue Apr 29 14:52:57 2014, MaxMem=   65536000 cpu:       0.2
 (Enter /apps/gaussian/g09/l103.exe)

 GradGradGradGradGradGradGradGradGradGradGradGradGradGradGradGradGradGrad
 Berny optimization.
 Search for a local minimum.
 Step number   1 out of a maximum of    2
 All quantities printed in internal units (Hartrees-Bohrs-Radians)
 Second derivative matrix not updated -- analytic derivatives used.
 The second derivative matrix:
                          X1        Y1        Z1        X2        Y2
           X1           0.17807
           Y1          -0.00661   0.12601
           Z1          -0.22283   0.01634   1.74580
           X2          -0.07236   0.00624   0.11165   0.05187
           Y2           0.00875  -0.06603  -0.03392  -0.00490   0.03603
           Z2           0.13516  -0.01957  -1.14378  -0.15387   0.02615
           X3          -0.10534   0.00840   0.07664   0.02082  -0.00804
           Y3           0.00340  -0.03871   0.01967  -0.00400   0.01840
           Z3           0.11118  -0.00353  -0.54030   0.04147   0.00947
           X4           0.00455   0.00014   0.03424  -0.00171   0.00002
           Y4           0.00245  -0.01267   0.00043  -0.00042   0.00663
           Z4          -0.02821   0.00017  -0.06234   0.00203   0.00046
           X5          -0.00492  -0.00816   0.00031   0.00138   0.00417
           Y5          -0.00798  -0.00859  -0.00253   0.00308   0.00497
           Z5           0.00470   0.00659   0.00061  -0.00129  -0.00217
                          Z2        X3        Y3        Z3        X4
           Z2           1.21165
           X3           0.00652   0.34753
           Y3          -0.01671   0.00015   0.01488
           Z3          -0.07653   0.09023  -0.00254   0.79089
           X4           0.00535  -0.26722  -0.00539  -0.23464   0.26364
           Y4          -0.00077  -0.00411   0.00031   0.00508   0.00265
           Z4           0.01108  -0.16997   0.00286  -0.17380   0.19587
           X5           0.00683   0.00421   0.00585  -0.00825   0.00073
           Y5           0.01089   0.00361   0.00513  -0.00848   0.00257
           Z5          -0.00242  -0.00342  -0.00328  -0.00027  -0.00082
                          Y4        Z4        X5        Y5        Z5
           Y4           0.00455
           Z4          -0.00277   0.22401
           X5          -0.00057   0.00028  -0.00140
           Y5           0.00118  -0.00072  -0.00128  -0.00269
           Z5          -0.00198   0.00105   0.00084   0.00084   0.00102
     Eigenvalues ---   -0.00924   0.00317   0.00652   0.05614   0.17085
     Eigenvalues ---    0.22311   0.59391   1.06211   2.77288
 Eigenvalue     1 is  -9.24D-03 should be greater than     0.000000 Eigenvector:
                          Y5        X5        Y3        Z5        X4
   1                   -0.73249  -0.50139   0.29259   0.25934   0.17785
                          Z4        X3        X2        Z1        X1
   1                   -0.11127   0.09400   0.05791  -0.03259  -0.02962
 Quadratic step=7.500D-01 exceeds max=3.000D-01 adjusted using Lamda=-1.327D-02.
 Angle between NR and scaled steps=   8.06 degrees.
 Angle between quadratic step and forces=  37.18 degrees.
 Linear search not attempted -- first point.
 TrRot= -0.012587 -0.023088  0.006398  1.834908  0.007763 -1.837448
 Variable       Old X    -DE/DX   Delta X   Delta X   Delta X     New X
                                 (Linear)    (Quad)   (Total)
    X1       -0.19580   0.00257   0.00000   0.02362   0.01043  -0.18538
    Y1       -0.11034   0.00297   0.00000   0.02279   0.00157  -0.10877
    Z1        0.18198   0.00075   0.00000   0.00886   0.01555   0.19754
    X2       -0.44943  -0.00165   0.00000  -0.02172  -0.03910  -0.48853
    Y2       -0.04849  -0.00163   0.00000  -0.00217  -0.00683  -0.05532
    Z2        2.30218  -0.00048   0.00000  -0.00147   0.00427   2.30645
    X3        0.53385  -0.00306   0.00000  -0.02882  -0.03769   0.49616
    Y3       -0.03663  -0.00503   0.00000  -0.11963  -0.15921  -0.19584
    Z3       -2.03338   0.00080   0.00000   0.00179   0.01045  -2.02293
    X4       -0.94662  -0.00048   0.00000  -0.05241  -0.05844  -1.00506
    Y4       -0.04023  -0.00012   0.00000   0.03884  -0.00595  -0.04618
    Z4       -3.26447   0.00033   0.00000   0.03043   0.03489  -3.22958
    X5        2.49422   0.00261   0.00000   0.12363   0.12480   2.61902
    Y5        2.75613   0.00381   0.00000   0.22311   0.17041   2.92654
    Z5       -2.99882  -0.00140   0.00000  -0.05470  -0.06517  -3.06399
         Item               Value     Threshold  Converged?
 Maximum Force            0.005027     0.000450     NO 
 RMS     Force            0.002316     0.000300     NO 
 Maximum Displacement     0.170414     0.001800     NO 
 RMS     Displacement     0.074097     0.001200     NO 
 Predicted change in Energy=-2.463666D-03
 GradGradGradGradGradGradGradGradGradGradGradGradGradGradGradGradGradGrad

 Leave Link  103 at Tue Apr 29 14:52:57 2014, MaxMem=   65536000 cpu:       0.0
 (Enter /apps/gaussian/g09/l9999.exe)

 Test job not archived.
 1\1\GINC-ROMEO158\Freq\UM06\6-311G(d,p)\H2N3(2)\ROOT\29-Apr-2014\0\\#P
  M06 6-311G** FREQ # GFINPUT IOP(6/7=3) POP=FULL\\RC, from TS reverse 
 7\\0,2\N,-0.103615,-0.058391,0.096301\N,-0.237828,-0.025661,1.218259\N
 ,0.282502,-0.019384,-1.076018\H,-0.50093,-0.021291,-1.727483\H,1.31988
 2,1.458479,-1.586908\\Version=AM64L-G09RevA.02\State=2-A\HF=-165.22401
 42\S2=0.756365\S2-1=0.\S2A=0.750004\RMSD=3.428e-09\RMSF=2.316e-03\Zero
 Point=0.0226425\Thermal=0.0268659\Dipole=-0.6727978,-0.1792484,-0.4445
 642\DipoleDeriv=0.0689811,-0.114446,-0.3258438,-0.1544463,0.0699918,0.
 1195502,-0.6248367,-0.2484496,2.0149289,-0.1257065,0.0166509,0.0549826
 ,0.0679241,-0.0718752,-0.0731115,0.4451481,0.2700739,-1.0376905,-0.090
 6177,0.0233822,0.3834884,0.0529305,-0.3623736,-0.0573438,0.176724,0.00
 74981,-1.2741271,0.153675,-0.0110018,-0.0768545,-0.0133339,0.3368786,0
 .0241166,0.0449289,0.031569,0.3366429,-0.0063319,0.0854147,-0.0357727,
 0.0469257,0.0273784,-0.0132114,-0.0419642,-0.0606914,-0.0397542\Polar=
 18.595751,6.5924383,17.6003927,-9.0910011,-6.4664157,43.108787\PG=C01 
 [X(H2N3)]\NImag=1\\0.17806525,-0.00661398,0.12600504,-0.22283497,0.016
 34068,1.74580353,-0.07236060,0.00624069,0.11165177,0.05187455,0.008750
 19,-0.06603013,-0.03391657,-0.00489987,0.03603218,0.13516495,-0.019568
 69,-1.14377987,-0.15386890,0.02615415,1.21164971,-0.10533983,0.0083955
 3,0.07663990,0.02081746,-0.00804265,0.00651509,0.34753136,0.00339619,-
 0.03871302,0.01967231,-0.00400486,0.01839751,-0.01670626,0.00014567,0.
 01487875,0.11118340,-0.00353108,-0.54029552,0.04147481,0.00946987,-0.0
 7652760,0.09023469,-0.00254197,0.79089445,0.00455468,0.00014214,0.0342
 3671,-0.00170781,0.00002183,0.00535438,-0.26722054,-0.00538537,-0.2346
 3903,0.26364458,0.00244729,-0.01266960,0.00043464,-0.00042033,0.006627
 05,-0.00076573,-0.00410584,0.00030798,0.00508050,0.00265115,0.00455434
 ,-0.02820870,0.00017067,-0.06233986,0.00203221,0.00046165,0.01107649,-
 0.16997101,0.00285988,-0.17380132,0.19587248,-0.00277102,0.22401046,-0
 .00491951,-0.00816438,0.00030660,0.00137640,0.00417050,0.00683449,0.00
 421155,0.00584837,-0.00825387,0.00072910,-0.00057227,0.00027502,-0.001
 39755,-0.00797969,-0.00859229,-0.00253107,0.00308437,0.00497339,0.0108
 8653,0.00360729,0.00512879,-0.00847732,0.00257024,0.00118023,-0.000721
 18,-0.00128221,-0.00269011,0.00469532,0.00658842,0.00061171,-0.0012898
 8,-0.00216910,-0.00241873,-0.00341867,-0.00328397,-0.00027001,-0.00082
 453,-0.00197839,0.00105424,0.00083776,0.00084305,0.00102278\\-0.002573
 80,-0.00297292,-0.00075123,0.00164757,0.00163003,0.00048131,0.00305609
 ,0.00502656,-0.00079723,0.00047608,0.00012200,-0.00032938,-0.00260593,
 -0.00380567,0.00139653\\\@


 ORIGINALITY CONSISTS NOT IN SAYING WHAT NO ONE HAS EVER SAID BEFORE, 
 BUT IN SAYING WHAT YOU THINK YOUR SELF.

                                    -- JAMES F. STEPHEN
 Job cpu time:  0 days  0 hours  1 minutes 50.0 seconds.
 File lengths (MBytes):  RWF=      9 Int=      0 D2E=      0 Chk=      1 Scr=      1
 Normal termination of Gaussian 09 at Tue Apr 29 14:52:57 2014.
************
total 320
drwxrwxr-x 2 henon henon   4096 29 avril 14:52 .
drwxrwxr-x 3 henon henon   4096 29 avril 14:52 ..
-rw-r--r-- 1 henon henon    376 29 avril 14:52 7Rfreq.inp
-rw-rw-r-- 1 henon henon 312063 29 avril 14:52 7Rfreq.out
Run on 12 cores
romeo158
************
