 Entering Gaussian System, Link 0=g03
 Initial command:
 /soft/g03/g03/l1.exe /dlocal/run/antares-adm.62272.0/Gau-10708.inp -scrdir=/dlocal/run/antares-adm.62272.0/
 Entering Link 1 = /soft/g03/g03/l1.exe PID=     10709.
  
 Copyright (c) 1988,1990,1992,1993,1995,1998,2003,2004, Gaussian, Inc.
                  All Rights Reserved.
  
 This is the Gaussian(R) 03 program.  It is based on the
 the Gaussian(R) 98 system (copyright 1998, Gaussian, Inc.),
 the Gaussian(R) 94 system (copyright 1995, Gaussian, Inc.),
 the Gaussian 92(TM) system (copyright 1992, Gaussian, Inc.),
 the Gaussian 90(TM) system (copyright 1990, Gaussian, Inc.),
 the Gaussian 88(TM) system (copyright 1988, Gaussian, Inc.),
 the Gaussian 86(TM) system (copyright 1986, Carnegie Mellon
 University), and the Gaussian 82(TM) system (copyright 1983,
 Carnegie Mellon University). Gaussian is a federally registered
 trademark of Gaussian, Inc.
  
 This software contains proprietary and confidential information,
 including trade secrets, belonging to Gaussian, Inc.
  
 This software is provided under written license and may be
 used, copied, transmitted, or stored only in accord with that
 written license.
  
 The following legend is applicable only to US Government
 contracts under FAR:
  
                    RESTRICTED RIGHTS LEGEND
  
 Use, reproduction and disclosure by the US Government is
 subject to restrictions as set forth in subparagraphs (a)
 and (c) of the Commercial Computer Software - Restricted
 Rights clause in FAR 52.227-19.
  
 Gaussian, Inc.
 340 Quinnipiac St., Bldg. 40, Wallingford CT 06492
  
  
 ---------------------------------------------------------------
 Warning -- This program may not be used in any manner that
 competes with the business of Gaussian, Inc. or will provide
 assistance to any competitor of Gaussian, Inc.  The licensee
 of this program is prohibited from giving any competitor of
 Gaussian, Inc. access to this program.  By using this program,
 the user acknowledges that Gaussian, Inc. is engaged in the
 business of creating and licensing software in the field of
 computational chemistry and represents and warrants to the
 licensee that it is not a competitor of Gaussian, Inc. and that
 it will not use this program in any manner prohibited above.
 ---------------------------------------------------------------
  

 Cite this work as:
 Gaussian 03, Revision C.02,
 M. J. Frisch, G. W. Trucks, H. B. Schlegel, G. E. Scuseria, 
 M. A. Robb, J. R. Cheeseman, J. A. Montgomery, Jr., T. Vreven, 
 K. N. Kudin, J. C. Burant, J. M. Millam, S. S. Iyengar, J. Tomasi, 
 V. Barone, B. Mennucci, M. Cossi, G. Scalmani, N. Rega, 
 G. A. Petersson, H. Nakatsuji, M. Hada, M. Ehara, K. Toyota, 
 R. Fukuda, J. Hasegawa, M. Ishida, T. Nakajima, Y. Honda, O. Kitao, 
 H. Nakai, M. Klene, X. Li, J. E. Knox, H. P. Hratchian, J. B. Cross, 
 C. Adamo, J. Jaramillo, R. Gomperts, R. E. Stratmann, O. Yazyev, 
 A. J. Austin, R. Cammi, C. Pomelli, J. W. Ochterski, P. Y. Ayala, 
 K. Morokuma, G. A. Voth, P. Salvador, J. J. Dannenberg, 
 V. G. Zakrzewski, S. Dapprich, A. D. Daniels, M. C. Strain, 
 O. Farkas, D. K. Malick, A. D. Rabuck, K. Raghavachari, 
 J. B. Foresman, J. V. Ortiz, Q. Cui, A. G. Baboul, S. Clifford, 
 J. Cioslowski, B. B. Stefanov, G. Liu, A. Liashenko, P. Piskorz, 
 I. Komaromi, R. L. Martin, D. J. Fox, T. Keith, M. A. Al-Laham, 
 C. Y. Peng, A. Nanayakkara, M. Challacombe, P. M. W. Gill, 
 B. Johnson, W. Chen, M. W. Wong, C. Gonzalez, and J. A. Pople, 
 Gaussian, Inc., Wallingford CT, 2004.
 
 ******************************************
 Gaussian 03:  AM64L-G03RevC.02 12-Jun-2004
                21-Feb-2012 
 ******************************************
 %CHK=ts
 %NPROC=4
 Will use up to    4 processors via shared memory.
 %Mem=4GB
 ----------------------------------------------------------------------
 #P UMP2/GEN Pseudo=read opt=(ts,noeig,readfc) freq scf=qc optcyc=90 # 
 pop=full gfinput iop(6/7=3) nosym guess=read geom=checkpoint
 ----------------------------------------------------------------------
 1/5=1,6=90,10=3,11=1,18=20,29=2,38=1/1,3;
 2/9=110,15=1,40=1/2;
 3/5=7,11=2,16=1,17=8,24=10,25=1,30=1/1,2,3;
 4/5=1,7=2/1;
 5/5=2,8=3,38=6/8;
 8/6=4,10=1/1;
 9/15=2,16=-3/6;
 10/5=1,31=1/2;
 6/7=3/1;
 7/12=2,30=1/1,2,3,16;
 1/5=1,6=90,11=1,18=20/3(1);
 99//99;
 2/9=110,15=1/2;
 3/5=7,6=1,11=2,16=1,17=8,25=1,30=1,82=7/1,2,3;
 4/5=5,7=2,16=3/1;
 5/5=2,8=3,38=5/8;
 8/6=4,10=1/1;
 9/15=2,16=-3/6;
 10/5=1,31=1/2;
 7/12=2,30=1/1,2,3,16;
 1/5=1,6=90,11=1,18=20/3(-8);
 2/9=110,15=1/2;
 6/7=3/1;
 99//99;
 Leave Link    1 at Tue Feb 21 17:32:59 2012, MaxMem=  536870912 cpu:       0.8
 (Enter /soft/g03/g03/l101.exe)
 ---
 Job
 ---
 Redundant internal coordinates taken from checkpoint file:
 ts.chk
 Charge =  0 Multiplicity = 2
 C,0,-0.0192141338,-0.0033063622,-0.1466532797
 I,0,0.0585651711,-0.0121425913,2.4788965962
 I,0,-0.0035545746,0.0410967325,5.1769124167
 H,0,1.0439988092,-0.1286548091,-0.2688569139
 H,0,-0.6562640086,-0.8576212751,-0.3037098313
 H,0,-0.4384112632,0.9782793052,-0.291683988
 Recover connectivity data from disk.
                    Isotopes and Nuclear Properties:

  Atom         1           2           3           4           5           6
 IAtWgt=          12         127         127           1           1           1
 AtmWgt=  12.0000000 126.9004000 126.9004000   1.0078250   1.0078250   1.0078250
 IAtSpn=           0           5           5           1           1           1
 AtZEff=  -3.6000000************************  -1.0000000  -1.0000000  -1.0000000
 AtQMom=   0.0000000 -78.9000000 -78.9000000   0.0000000   0.0000000   0.0000000
 AtGFac=   0.0000000   2.8132800   2.8132800   2.7928460   2.7928460   2.7928460
 Leave Link  101 at Tue Feb 21 17:32:59 2012, MaxMem=  536870912 cpu:       0.5
 (Enter /soft/g03/g03/l103.exe)

 GradGradGradGradGradGradGradGradGradGradGradGradGradGradGradGradGradGrad
 Berny optimization.
 Initialization pass.
 Force constant matrix read from checkpoint file:
 ts.chk
 NVar current=  13 chk=  13 common=  13.
                           ----------------------------
                           !    Initial Parameters    !
                           ! (Angstroms and Degrees)  !
 --------------------------                            --------------------------
 ! Name  Definition              Value          Derivative Info.                !
 --------------------------------------------------------------------------------
 ! R1    R(1,2)                  2.6267         D2E/DX2 =    0.0007             !
 ! R2    R(1,4)                  1.0775         D2E/DX2 =    0.3811             !
 ! R3    R(1,5)                  1.0772         D2E/DX2 =    0.3813             !
 ! R4    R(1,6)                  1.0772         D2E/DX2 =    0.3812             !
 ! R5    R(2,3)                  2.6993         D2E/DX2 =    0.0624             !
 ! A1    A(2,1,4)               94.8043         D2E/DX2 =    0.1046             !
 ! A2    A(2,1,5)               99.2406         D2E/DX2 =    0.1067             !
 ! A3    A(2,1,6)               98.5789         D2E/DX2 =    0.0954             !
 ! A4    A(4,1,5)              118.3427         D2E/DX2 =    0.0755             !
 ! A5    A(4,1,6)              118.3422         D2E/DX2 =    0.0752             !
 ! A6    A(5,1,6)              118.2252         D2E/DX2 =    0.0754             !
 ! A7    L(1,2,3,5,-1)         179.0434         D2E/DX2 =    0.0151             !
 ! A8    L(1,2,3,5,-2)         188.6943         D2E/DX2 =    0.0028             !
 --------------------------------------------------------------------------------
 Trust Radius=3.00D-01 FncErr=1.00D-07 GrdErr=1.00D-07
 Number of steps in this run=  90 maximum allowed number of steps= 100.
 Search for a saddle point of order  1.
 GradGradGradGradGradGradGradGradGradGradGradGradGradGradGradGradGradGrad

 Leave Link  103 at Tue Feb 21 17:33:00 2012, MaxMem=  536870912 cpu:       0.1
 (Enter /soft/g03/g03/l202.exe)
                          Input orientation:                          
 ---------------------------------------------------------------------
 Center     Atomic     Atomic              Coordinates (Angstroms)
 Number     Number      Type              X           Y           Z
 ---------------------------------------------------------------------
    1          6             0       -0.019214   -0.003306   -0.146653
    2         53             0        0.058565   -0.012143    2.478897
    3         53             0       -0.003555    0.041097    5.176912
    4          1             0        1.043999   -0.128655   -0.268857
    5          1             0       -0.656264   -0.857621   -0.303710
    6          1             0       -0.438411    0.978279   -0.291684
 ---------------------------------------------------------------------
                    Distance matrix (angstroms):
                    1          2          3          4          5
     1  C    0.000000
     2  I    2.626717   0.000000
     3  I    5.323774   2.699256   0.000000
     4  H    1.077529   2.921439   5.548206   0.000000
     5  H    1.077197   2.994781   5.592043   1.850270   0.000000
     6  H    1.077159   2.983963   5.565335   1.850233   1.848820
                    6
     6  H    0.000000
 Symmetry turned off by external request.
 Stoichiometry    CH3I2(2)
 Framework group  C1[X(CH3I2)]
 Deg. of freedom    12
 Full point group                 C1      NOp   1
 Rotational constants (GHZ):    137.8712548      0.7311935      0.7309594
 Leave Link  202 at Tue Feb 21 17:33:00 2012, MaxMem=  536870912 cpu:       0.1
 (Enter /soft/g03/g03/l301.exe)
 General basis read from cards:  (5D, 7F)
 Centers:   1  4  5  6
 cc-pVTZ
 ****
 Centers:   2  3
 S 11 1.00
     Exponent=  5.5465000000D+03 Coefficients=  1.5600000000D-04
     Exponent=  8.3821400000D+02 Coefficients=  9.8600000000D-04
     Exponent=  1.8218700000D+02 Coefficients=  2.7920000000D-03
     Exponent=  3.1212300000D+01 Coefficients= -4.3251000000D-02
     Exponent=  1.9531400000D+01 Coefficients=  2.3413400000D-01
     Exponent=  8.2409900000D+00 Coefficients= -7.5094300000D-01
     Exponent=  2.1945500000D+00 Coefficients=  8.8296800000D-01
     Exponent=  1.1091100000D+00 Coefficients=  4.6206100000D-01
     Exponent=  3.7464100000D-01 Coefficients=  2.2286000000D-02
     Exponent=  1.7708000000D-01 Coefficients= -4.3530000000D-03
     Exponent=  8.1061000000D-02 Coefficients=  1.1020000000D-03
 S 11 1.00
     Exponent=  5.5465000000D+03 Coefficients= -7.3000000000D-05
     Exponent=  8.3821400000D+02 Coefficients= -5.0800000000D-04
     Exponent=  1.8218700000D+02 Coefficients= -1.1580000000D-03
     Exponent=  3.1212300000D+01 Coefficients=  1.2193000000D-02
     Exponent=  1.9531400000D+01 Coefficients= -8.7854000000D-02
     Exponent=  8.2409900000D+00 Coefficients=  3.3820000000D-01
     Exponent=  2.1945500000D+00 Coefficients= -5.7655000000D-01
     Exponent=  1.1091100000D+00 Coefficients= -4.0929800000D-01
     Exponent=  3.7464100000D-01 Coefficients=  5.6745900000D-01
     Exponent=  1.7708000000D-01 Coefficients=  6.1248900000D-01
     Exponent=  8.1061000000D-02 Coefficients=  1.4323100000D-01
 S 1 1.00
     Exponent=  3.7464100000D-01 Coefficients=  1.0000000000D+00
 S 1 1.00
     Exponent=  1.7708000000D-01 Coefficients=  1.0000000000D+00
 S 1 1.00
     Exponent=  1.0010000000D-01 Coefficients=  1.0000000000D+00
 P 9 1.00
     Exponent=  1.8898800000D+02 Coefficients=  5.8500000000D-04
     Exponent=  2.1286800000D+01 Coefficients=  3.6923000000D-02
     Exponent=  1.0039600000D+01 Coefficients= -2.3532400000D-01
     Exponent=  3.4518000000D+00 Coefficients=  3.4148300000D-01
     Exponent=  1.9745600000D+00 Coefficients=  5.3478800000D-01
     Exponent=  1.0242000000D+00 Coefficients=  2.6514100000D-01
     Exponent=  4.4943700000D-01 Coefficients=  2.5787000000D-02
     Exponent=  1.8664800000D-01 Coefficients=  5.2200000000D-04
     Exponent=  7.3481000000D-02 Coefficients=  6.0600000000D-04
 P 9 1.00
     Exponent=  1.8898800000D+02 Coefficients= -2.5600000000D-04
     Exponent=  2.1286800000D+01 Coefficients= -1.1682000000D-02
     Exponent=  1.0039600000D+01 Coefficients=  8.3192000000D-02
     Exponent=  3.4518000000D+00 Coefficients= -1.5697000000D-01
     Exponent=  1.9745600000D+00 Coefficients= -2.2451800000D-01
     Exponent=  1.0242000000D+00 Coefficients= -1.1445100000D-01
     Exponent=  4.4943700000D-01 Coefficients=  3.7535600000D-01
     Exponent=  1.8664800000D-01 Coefficients=  5.7513600000D-01
     Exponent=  7.3481000000D-02 Coefficients=  2.4591700000D-01
 P 1 1.00
     Exponent=  5.9810000000D-01 Coefficients=  1.0000000000D+00
 P 1 1.00
     Exponent=  9.6180000000D-02 Coefficients=  1.0000000000D+00
 D 9 1.00
     Exponent=  1.3266200000D+02 Coefficients=  5.7200000000D-04
     Exponent=  3.7605400000D+01 Coefficients=  4.4020000000D-03
     Exponent=  1.0389100000D+01 Coefficients= -4.0922000000D-02
     Exponent=  6.4901700000D+00 Coefficients=  9.9661000000D-02
     Exponent=  3.4545100000D+00 Coefficients=  3.2266300000D-01
     Exponent=  1.8441300000D+00 Coefficients=  4.0034300000D-01
     Exponent=  9.6247800000D-01 Coefficients=  2.6830600000D-01
     Exponent=  4.7285300000D-01 Coefficients=  8.4847000000D-02
     Exponent=  1.9320000000D-01 Coefficients=  7.6320000000D-03
 D 1 1.00
     Exponent=  4.7285300000D-01 Coefficients=  1.0000000000D+00
 D 1 1.00
     Exponent=  1.9320000000D-01 Coefficients=  1.0000000000D+00
 F 1 1.00
     Exponent=  4.0640000000D-01 Coefficients=  1.0000000000D+00
 ****
 AO basis set in the form of general basis input:
  1 0
 S   7 1.00       0.000000000000
      0.8236000000D+04  0.5419783203D-03
      0.1235000000D+04  0.4192873817D-02
      0.2808000000D+03  0.2152216205D-01
      0.7927000000D+02  0.8353432195D-01
      0.2559000000D+02  0.2395828457D+00
      0.8997000000D+01  0.4428528419D+00
      0.3319000000D+01  0.3517995618D+00
 S   7 1.00       0.000000000000
      0.8236000000D+04  0.8318202971D-05
      0.1235000000D+04  0.5754289758D-04
      0.2808000000D+03  0.2359672919D-03
      0.2559000000D+02 -0.6715965456D-02
      0.8997000000D+01 -0.5504926385D-01
      0.3319000000D+01 -0.1681798862D+00
      0.3643000000D+00  0.1071293593D+01
 S   1 1.00       0.000000000000
      0.9059000000D+00  0.1000000000D+01
 S   1 1.00       0.000000000000
      0.1285000000D+00  0.1000000000D+01
 P   3 1.00       0.000000000000
      0.1871000000D+02  0.3942638716D-01
      0.4133000000D+01  0.2440889849D+00
      0.1200000000D+01  0.8154920089D+00
 P   1 1.00       0.000000000000
      0.3827000000D+00  0.1000000000D+01
 P   1 1.00       0.000000000000
      0.1209000000D+00  0.1000000000D+01
 D   1 1.00       0.000000000000
      0.1097000000D+01  0.1000000000D+01
 D   1 1.00       0.000000000000
      0.3180000000D+00  0.1000000000D+01
 F   1 1.00       0.000000000000
      0.7610000000D+00  0.1000000000D+01
 ****
  2 0
 S  11 1.00       0.000000000000
      0.5546500000D+04  0.1560000145D-03
      0.8382140000D+03  0.9860000916D-03
      0.1821870000D+03  0.2792000259D-02
      0.3121230000D+02 -0.4325100402D-01
      0.1953140000D+02  0.2341340218D+00
      0.8240990000D+01 -0.7509430698D+00
      0.2194550000D+01  0.8829680821D+00
      0.1109110000D+01  0.4620610429D+00
      0.3746410000D+00  0.2228600207D-01
      0.1770800000D+00 -0.4353000405D-02
      0.8106100000D-01  0.1102000102D-02
 S  11 1.00       0.000000000000
      0.5546500000D+04 -0.7300004360D-04
      0.8382140000D+03 -0.5080003034D-03
      0.1821870000D+03 -0.1158000692D-02
      0.3121230000D+02  0.1219300728D-01
      0.1953140000D+02 -0.8785405247D-01
      0.8240990000D+01  0.3382002020D+00
      0.2194550000D+01 -0.5765503443D+00
      0.1109110000D+01 -0.4092982444D+00
      0.3746410000D+00  0.5674593389D+00
      0.1770800000D+00  0.6124893658D+00
      0.8106100000D-01  0.1432310855D+00
 S   1 1.00       0.000000000000
      0.3746410000D+00  0.1000000000D+01
 S   1 1.00       0.000000000000
      0.1770800000D+00  0.1000000000D+01
 S   1 1.00       0.000000000000
      0.1001000000D+00  0.1000000000D+01
 P   9 1.00       0.000000000000
      0.1889880000D+03  0.5850000660D-03
      0.2128680000D+02  0.3692300416D-01
      0.1003960000D+02 -0.2353240265D+00
      0.3451800000D+01  0.3414830385D+00
      0.1974560000D+01  0.5347880603D+00
      0.1024200000D+01  0.2651410299D+00
      0.4494370000D+00  0.2578700291D-01
      0.1866480000D+00  0.5220000589D-03
      0.7348100000D-01  0.6060000684D-03
 P   9 1.00       0.000000000000
      0.1889880000D+03 -0.2559998997D-03
      0.2128680000D+02 -0.1168199542D-01
      0.1003960000D+02  0.8319196740D-01
      0.3451800000D+01 -0.1569699385D+00
      0.1974560000D+01 -0.2245179120D+00
      0.1024200000D+01 -0.1144509551D+00
      0.4494370000D+00  0.3753558529D+00
      0.1866480000D+00  0.5751357746D+00
      0.7348100000D-01  0.2459169036D+00
 P   1 1.00       0.000000000000
      0.5981000000D+00  0.1000000000D+01
 P   1 1.00       0.000000000000
      0.9618000000D-01  0.1000000000D+01
 D   9 1.00       0.000000000000
      0.1326620000D+03  0.5720000717D-03
      0.3760540000D+02  0.4402000552D-02
      0.1038910000D+02 -0.4092200513D-01
      0.6490170000D+01  0.9966101249D-01
      0.3454510000D+01  0.3226630405D+00
      0.1844130000D+01  0.4003430502D+00
      0.9624780000D+00  0.2683060336D+00
      0.4728530000D+00  0.8484701064D-01
      0.1932000000D+00  0.7632000957D-02
 D   1 1.00       0.000000000000
      0.4728530000D+00  0.1000000000D+01
 D   1 1.00       0.000000000000
      0.1932000000D+00  0.1000000000D+01
 F   1 1.00       0.000000000000
      0.4064000000D+00  0.1000000000D+01
 ****
  3 0
 S  11 1.00       0.000000000000
      0.5546500000D+04  0.1560000145D-03
      0.8382140000D+03  0.9860000916D-03
      0.1821870000D+03  0.2792000259D-02
      0.3121230000D+02 -0.4325100402D-01
      0.1953140000D+02  0.2341340218D+00
      0.8240990000D+01 -0.7509430698D+00
      0.2194550000D+01  0.8829680821D+00
      0.1109110000D+01  0.4620610429D+00
      0.3746410000D+00  0.2228600207D-01
      0.1770800000D+00 -0.4353000405D-02
      0.8106100000D-01  0.1102000102D-02
 S  11 1.00       0.000000000000
      0.5546500000D+04 -0.7300004360D-04
      0.8382140000D+03 -0.5080003034D-03
      0.1821870000D+03 -0.1158000692D-02
      0.3121230000D+02  0.1219300728D-01
      0.1953140000D+02 -0.8785405247D-01
      0.8240990000D+01  0.3382002020D+00
      0.2194550000D+01 -0.5765503443D+00
      0.1109110000D+01 -0.4092982444D+00
      0.3746410000D+00  0.5674593389D+00
      0.1770800000D+00  0.6124893658D+00
      0.8106100000D-01  0.1432310855D+00
 S   1 1.00       0.000000000000
      0.3746410000D+00  0.1000000000D+01
 S   1 1.00       0.000000000000
      0.1770800000D+00  0.1000000000D+01
 S   1 1.00       0.000000000000
      0.1001000000D+00  0.1000000000D+01
 P   9 1.00       0.000000000000
      0.1889880000D+03  0.5850000660D-03
      0.2128680000D+02  0.3692300416D-01
      0.1003960000D+02 -0.2353240265D+00
      0.3451800000D+01  0.3414830385D+00
      0.1974560000D+01  0.5347880603D+00
      0.1024200000D+01  0.2651410299D+00
      0.4494370000D+00  0.2578700291D-01
      0.1866480000D+00  0.5220000589D-03
      0.7348100000D-01  0.6060000684D-03
 P   9 1.00       0.000000000000
      0.1889880000D+03 -0.2559998997D-03
      0.2128680000D+02 -0.1168199542D-01
      0.1003960000D+02  0.8319196740D-01
      0.3451800000D+01 -0.1569699385D+00
      0.1974560000D+01 -0.2245179120D+00
      0.1024200000D+01 -0.1144509551D+00
      0.4494370000D+00  0.3753558529D+00
      0.1866480000D+00  0.5751357746D+00
      0.7348100000D-01  0.2459169036D+00
 P   1 1.00       0.000000000000
      0.5981000000D+00  0.1000000000D+01
 P   1 1.00       0.000000000000
      0.9618000000D-01  0.1000000000D+01
 D   9 1.00       0.000000000000
      0.1326620000D+03  0.5720000717D-03
      0.3760540000D+02  0.4402000552D-02
      0.1038910000D+02 -0.4092200513D-01
      0.6490170000D+01  0.9966101249D-01
      0.3454510000D+01  0.3226630405D+00
      0.1844130000D+01  0.4003430502D+00
      0.9624780000D+00  0.2683060336D+00
      0.4728530000D+00  0.8484701064D-01
      0.1932000000D+00  0.7632000957D-02
 D   1 1.00       0.000000000000
      0.4728530000D+00  0.1000000000D+01
 D   1 1.00       0.000000000000
      0.1932000000D+00  0.1000000000D+01
 F   1 1.00       0.000000000000
      0.4064000000D+00  0.1000000000D+01
 ****
  4 0
 S   3 1.00       0.000000000000
      0.3387000000D+02  0.2549486323D-01
      0.5095000000D+01  0.1903627659D+00
      0.1159000000D+01  0.8521620222D+00
 S   1 1.00       0.000000000000
      0.3258000000D+00  0.1000000000D+01
 S   1 1.00       0.000000000000
      0.1027000000D+00  0.1000000000D+01
 P   1 1.00       0.000000000000
      0.1407000000D+01  0.1000000000D+01
 P   1 1.00       0.000000000000
      0.3880000000D+00  0.1000000000D+01
 D   1 1.00       0.000000000000
      0.1057000000D+01  0.1000000000D+01
 ****
  5 0
 S   3 1.00       0.000000000000
      0.3387000000D+02  0.2549486323D-01
      0.5095000000D+01  0.1903627659D+00
      0.1159000000D+01  0.8521620222D+00
 S   1 1.00       0.000000000000
      0.3258000000D+00  0.1000000000D+01
 S   1 1.00       0.000000000000
      0.1027000000D+00  0.1000000000D+01
 P   1 1.00       0.000000000000
      0.1407000000D+01  0.1000000000D+01
 P   1 1.00       0.000000000000
      0.3880000000D+00  0.1000000000D+01
 D   1 1.00       0.000000000000
      0.1057000000D+01  0.1000000000D+01
 ****
  6 0
 S   3 1.00       0.000000000000
      0.3387000000D+02  0.2549486323D-01
      0.5095000000D+01  0.1903627659D+00
      0.1159000000D+01  0.8521620222D+00
 S   1 1.00       0.000000000000
      0.3258000000D+00  0.1000000000D+01
 S   1 1.00       0.000000000000
      0.1027000000D+00  0.1000000000D+01
 P   1 1.00       0.000000000000
      0.1407000000D+01  0.1000000000D+01
 P   1 1.00       0.000000000000
      0.3880000000D+00  0.1000000000D+01
 D   1 1.00       0.000000000000
      0.1057000000D+01  0.1000000000D+01
 ****

 ===================================================================================================================================
 Pseudopotential Parameters 
 ===================================================================================================================================
  Center     Atomic      Valence      Angular      Power                                                       Coordinates
  Number     Number     Electrons     Momentum     of R      Exponent        Coefficient                X           Y           Z
 ===================================================================================================================================
    1          6                                                                                   -0.036309 -0.006248 -0.277135
                                   No pseudopotential on this center.
    2         53           25                                                                       0.110672 -0.022946  4.684436
                                      G and up 
                                                     2        1.0000000        0.00000000
                                      S - G
                                                     2       40.0333760       49.98964900
                                                     2       17.3005760      281.00655600
                                                     2        8.8517200       61.41673900
                                      P - G
                                                     2       15.7201410       67.41623900
                                                     2       15.2082220      134.80769600
                                                     2        8.2941860       14.56654800
                                                     2        7.7539490       28.96842200
                                      D - G
                                                     2       13.8177510       35.53875600
                                                     2       13.5878050       53.33975900
                                                     2        6.9476300        9.71646600
                                                     2        6.9600990       14.97750000
                                      F - G
                                                     2       18.5229500      -20.17661800
                                                     2       18.2510350      -26.08807700
                                                     2        7.5579010       -0.22043400
                                                     2        7.5974040       -0.22164600
    3         53           25                                                                      -0.006717  0.077662  9.782947
                                      G and up 
                                                     2        1.0000000        0.00000000
                                      S - G
                                                     2       40.0333760       49.98964900
                                                     2       17.3005760      281.00655600
                                                     2        8.8517200       61.41673900
                                      P - G
                                                     2       15.7201410       67.41623900
                                                     2       15.2082220      134.80769600
                                                     2        8.2941860       14.56654800
                                                     2        7.7539490       28.96842200
                                      D - G
                                                     2       13.8177510       35.53875600
                                                     2       13.5878050       53.33975900
                                                     2        6.9476300        9.71646600
                                                     2        6.9600990       14.97750000
                                      F - G
                                                     2       18.5229500      -20.17661800
                                                     2       18.2510350      -26.08807700
                                                     2        7.5579010       -0.22043400
                                                     2        7.5974040       -0.22164600
    4          1                                                                                    1.972872 -0.243122 -0.508066
                                   No pseudopotential on this center.
    5          1                                                                                   -1.240159 -1.620669 -0.573928
                                   No pseudopotential on this center.
    6          1                                                                                   -0.828477  1.848680 -0.551203
                                   No pseudopotential on this center.
 ===================================================================================================================================
 Integral buffers will be    131072 words long.
 Raffenetti 2 integral format.
 Two-electron integral symmetry is turned off.
   150 basis functions,   426 primitive gaussians,   170 cartesian basis functions
    30 alpha electrons       29 beta electrons
       nuclear repulsion energy       197.8639829165 Hartrees.
 IExCor=   0 DFT=F Ex=HF Corr=None ExCW=0 ScaHFX=  1.000000
 ScaDFX=  1.000000  1.000000  1.000000  1.000000
 IRadAn=      0 IRanWt=     -1 IRanGd=            0 ICorTp=0
 NAtoms=    6 NActive=    6 NUniq=    6 SFac= 1.00D+00 NAtFMM=   60 Big=F
 Leave Link  301 at Tue Feb 21 17:33:00 2012, MaxMem=  536870912 cpu:       0.1
 (Enter /soft/g03/g03/l302.exe)
 NPDir=0 NMtPBC=     1 NCelOv=     1 NCel=       1 NClECP=     1 NCelD=      1
         NCelK=      1 NCelE2=     1 NClLst=     1 CellRange=     0.0.
 One-electron integrals computed using PRISM.
   1 Symmetry operations used in ECPInt.
 ECPInt:  NShTT=    1485 NPrTT=   13693 LenC2=    1486 LenP2D=   11123.
 LDataN:  DoStor=F MaxTD1= 7 Len=  274
 LDataN:  DoStor=T MaxTD1= 7 Len=  274
 NBasis=   150 RedAO= T  NBF=   150
 NBsUse=   150 1.00D-06 NBFU=   150
 Leave Link  302 at Tue Feb 21 17:33:00 2012, MaxMem=  536870912 cpu:       1.9
 (Enter /soft/g03/g03/l303.exe)
 DipDrv:  MaxL=1.
 Leave Link  303 at Tue Feb 21 17:33:00 2012, MaxMem=  536870912 cpu:       0.0
 (Enter /soft/g03/g03/l401.exe)
 Initial guess read from the checkpoint file:
 ts.chk
 Guess basis will be translated and rotated to current coordinates.
 <S**2> of initial guess= 0.8688
 Leave Link  401 at Tue Feb 21 17:33:01 2012, MaxMem=  536870912 cpu:       0.8
 (Enter /soft/g03/g03/l508.exe)
 Direct SCF.
 Tight linear equation convergence will be used.
 UHF wavefunction.
 Quadratic Convergence SCF Method.
 Line search only if initial step raises energy.
 Two-electron integral symmetry not used.
 ReadGW:  IGet=1 IStart=           1 Next=           1 LGW=           0.
 Keep R1 and R2 integrals in memory in canonical form, NReq=   214042385.
 Symmetry not used in FoFDir.
 MinBra= 0 MaxBra= 3 Meth= 1.
 IRaf=       0 NMat=   1 IRICut=       1 DoRegI=T DoRafI=F ISym2E= 0 JSym2E=0.
 Iteration   1 EE= -628.916207102573                                    Grad=4.160D-08
 Rotation gradient small -- convergence achieved.
 SCF Done:  E(UHF) =  -628.916207103     a.u. after    1 cycles
            Convg  =    0.4160D-07                     1 Fock formations.
              S**2 =  0.8688                  -V/T =  3.4072
 Annihilation of the first spin contaminant:
 S**2 before annihilation     0.8688,   after     0.7529
 Leave Link  508 at Tue Feb 21 17:33:07 2012, MaxMem=  536870912 cpu:      15.4
 (Enter /soft/g03/g03/l801.exe)
 ExpMin= 7.35D-02 ExpMax= 8.24D+03 ExpMxC= 2.81D+02 IAcc=3 IRadAn=         5 AccDes= 0.00D+00
 HarFok:  IExCor= 205 AccDes= 0.00D+00 IRadAn=         5 IDoV=1
 ScaDFX=  1.000000  1.000000  1.000000  1.000000
 Defaulting to unpruned grid for atomic number  53.
 Defaulting to unpruned grid for atomic number  53.
 Defaulting to unpruned grid for atomic number  53.
 Defaulting to unpruned grid for atomic number  53.
 Largest valence mixing into a core orbital is  1.61D-04
 Largest core mixing into a valence orbital is  2.00D-05
 Largest valence mixing into a core orbital is  2.09D-04
 Largest core mixing into a valence orbital is  2.43D-05
 Range of M.O.s used for correlation:     2   150
 NBasis=   150 NAE=    30 NBE=    29 NFC=     1 NFV=     0
 NROrb=    149 NOA=    29 NOB=    28 NVA=   120 NVB=   121

 **** Warning!!: The largest alpha MO coefficient is  0.12118252D+02


 **** Warning!!: The largest beta MO coefficient is  0.12115413D+02

 Leave Link  801 at Tue Feb 21 17:33:07 2012, MaxMem=  536870912 cpu:       0.7
 (Enter /soft/g03/g03/l906.exe)
 Frozen-core derivative calculation, NFC=   1 NFV=   0.
 FulOut=F Deriv=T AODrv=T NAtomX=     6
   MMem=         222  MDisk=          29 MDiskD=          29
  W3Min=     1530000 MinDsk=     1167835 NBas6D=         170
 NBas2D=       14886    NTT=       14535    LW2=     3500000
    MDV=   536715504 MDiskM=       15726 NBas2p=       14134
 Fully direct method using O(ONN) memory.
 IMap=   1   2   3   4   5   6   7   8   9  10  11  12  13  14  15  16  17  18  19  20
 IMap=  21  22  23  24  25  26  27  28  29  30
 JobTyp=2 Pass  1:  I=   2 to  30 NPSUse=  4 ParTrn=T ParDer=T DoDerP=T.
 IMap=   1   2   3   4   5   6   7   8   9  10  11  12  13  14  15  16  17  18  19  20
 IMap=  21  22  23  24  25  26  27  28  29
 JobTyp=3 Pass  1:  I=   2 to  29 NPSUse=  4 ParTrn=T ParDer=T DoDerP=T.
 Spin components of T(2) and E(2):
     alpha-alpha T2 =       0.3227963978D-01 E2=     -0.9422824202D-01
     alpha-beta  T2 =       0.1561061598D+00 E2=     -0.4534280726D+00
     beta-beta   T2 =       0.2677877150D-01 E2=     -0.7879823371D-01
 The integrals were generated   2 times.
 (S**2,0)=  0.86880D+00           (S**2,1)=  0.82085D+00
 E(PUHF)=      -0.62892622130D+03        E(PMP2)=      -0.62955068402D+03
 ANorm=    0.1102345033D+01
 E2 =    -0.6264545483D+00 EUMP2 =    -0.62954266165086D+03
 Leave Link  906 at Tue Feb 21 17:34:35 2012, MaxMem=  536870912 cpu:     342.5
 (Enter /soft/g03/g03/l1002.exe)
 Minotr:  UHF wavefunction.
          Computing MP2 derivatives.
          Using Z-Vector for PSCF gradient.
          Skipping F1 and S1 gradient terms here.
 DoAtom=TTTTTT
          Frozen-core window.
          Direct CPHF calculation.
          Solving linear equations simultaneously.
          Differentiating once with respect to electric field.
                with respect to dipole field.
          Differentiating once with respect to nuclear coordinates.
          Requested convergence is 1.0D-10 RMS, and 1.0D-09 maximum.
          Secondary convergence is 1.0D-12 RMS, and 1.0D-12 maximum.
          NewPWx=F KeepS1=T KeepF1=T KeepIn=T MapXYZ=F.
          MDV=     536870856 using IRadAn=       0.
          Store integrals in memory, NReq=   213221855.
 Symmetry not used in FoFDir.
 MinBra= 0 MaxBra= 3 Meth= 1.
 IRaf=       0 NMat=   1 IRICut=       1 DoRegI=T DoRafI=F ISym2E= 0 JSym2E=0.
          There are   1 degrees of freedom in the 1st order CPHF.
     1 vectors were produced by pass  0.
 AX will form   1 AO Fock derivatives at one time.
     1 vectors were produced by pass  1.
     1 vectors were produced by pass  2.
     1 vectors were produced by pass  3.
     1 vectors were produced by pass  4.
     1 vectors were produced by pass  5.
     1 vectors were produced by pass  6.
     1 vectors were produced by pass  7.
     1 vectors were produced by pass  8.
     1 vectors were produced by pass  9.
     1 vectors were produced by pass 10.
     1 vectors were produced by pass 11.
     1 vectors were produced by pass 12.
     1 vectors were produced by pass 13.
     1 vectors were produced by pass 14.
 Inv2:  IOpt= 1 Iter= 1 AM= 1.66D-15 Conv= 1.00D-12.
 Inverted reduced A of dimension   15 with in-core refinement.
 End of Minotr Frequency-dependent properties file   721 does not exist.
 Leave Link 1002 at Tue Feb 21 17:34:46 2012, MaxMem=  536870912 cpu:      38.8
 (Enter /soft/g03/g03/l601.exe)
 Copying SCF densities to generalized density rwf, ISCF=1 IROHF=0.

 **********************************************************************

            Population analysis using the SCF density.

 **********************************************************************

 Alpha  occ. eigenvalues --  -11.28105  -7.73975  -7.72920  -5.57131  -5.56564
 Alpha  occ. eigenvalues --   -5.56094  -5.56093  -5.54862  -5.54861  -2.30368
 Alpha  occ. eigenvalues --   -2.29680  -2.29679  -2.29169  -2.28654  -2.28654
 Alpha  occ. eigenvalues --   -2.28304  -2.28304  -2.27126  -2.27126  -0.99978
 Alpha  occ. eigenvalues --   -0.94149  -0.83342  -0.62109  -0.62042  -0.50482
 Alpha  occ. eigenvalues --   -0.42342  -0.42319  -0.37542  -0.34816  -0.34783
 Alpha virt. eigenvalues --    0.03993   0.13627   0.19983   0.20004   0.23067
 Alpha virt. eigenvalues --    0.29615   0.29926   0.30605   0.34969   0.35410
 Alpha virt. eigenvalues --    0.37212   0.37899   0.37972   0.39541   0.43096
 Alpha virt. eigenvalues --    0.43116   0.43720   0.43894   0.45818   0.46208
 Alpha virt. eigenvalues --    0.57040   0.57418   0.58748   0.59310   0.60959
 Alpha virt. eigenvalues --    0.63148   0.63229   0.77304   0.77345   0.80927
 Alpha virt. eigenvalues --    0.84171   1.00675   1.03179   1.03556   1.07094
 Alpha virt. eigenvalues --    1.07414   1.08297   1.13176   1.13503   1.15191
 Alpha virt. eigenvalues --    1.15445   1.16968   1.17583   1.17752   1.19241
 Alpha virt. eigenvalues --    1.21294   1.23969   1.25625   1.27349   1.29465
 Alpha virt. eigenvalues --    1.41846   1.43092   1.43370   1.44385   1.44459
 Alpha virt. eigenvalues --    1.52993   1.53127   1.58070   1.60241   1.60310
 Alpha virt. eigenvalues --    1.65525   1.65666   1.66518   1.66610   1.79351
 Alpha virt. eigenvalues --    1.79699   1.83839   1.86872   2.01279   2.44325
 Alpha virt. eigenvalues --    2.46026   2.46122   2.62462   2.74576   2.74789
 Alpha virt. eigenvalues --    2.81954   2.82061   2.87614   2.87826   2.95438
 Alpha virt. eigenvalues --    2.95892   2.99415   3.10495   3.12048   3.21028
 Alpha virt. eigenvalues --    3.21329   3.35345   3.35869   3.42399   3.48013
 Alpha virt. eigenvalues --    3.58443   3.66347   3.66371   3.75242   3.75368
 Alpha virt. eigenvalues --    3.86937   4.06236   4.06617   4.17329   4.22139
 Alpha virt. eigenvalues --    4.25474   4.25618   4.34845   4.35114   4.39097
 Alpha virt. eigenvalues --    4.93071   5.12655   5.12903   5.20698   5.21057
 Alpha virt. eigenvalues --    5.30015   5.36922   5.37489   5.87902   6.03973
 Alpha virt. eigenvalues --    6.04373   6.29386  13.47271  58.91635  58.95042
  Beta  occ. eigenvalues --  -11.26188  -7.74091  -7.72564  -5.57831  -5.56003
  Beta  occ. eigenvalues --   -5.56002  -5.55558  -5.54821  -5.54821  -2.30574
  Beta  occ. eigenvalues --   -2.29944  -2.29943  -2.28658  -2.28225  -2.28224
  Beta  occ. eigenvalues --   -2.28208  -2.28208  -2.27117  -2.27117  -0.94956
  Beta  occ. eigenvalues --   -0.90755  -0.81774  -0.60846  -0.60771  -0.45256
  Beta  occ. eigenvalues --   -0.42011  -0.41990  -0.34410  -0.34408
  Beta virt. eigenvalues --   -0.01555   0.11778   0.16391   0.20390   0.20413
  Beta virt. eigenvalues --    0.23284   0.29699   0.30036   0.31069   0.35286
  Beta virt. eigenvalues --    0.35650   0.38237   0.38470   0.39464   0.43234
  Beta virt. eigenvalues --    0.43260   0.43924   0.44259   0.46182   0.46570
  Beta virt. eigenvalues --    0.46719   0.57948   0.58382   0.59633   0.61596
  Beta virt. eigenvalues --    0.62994   0.64185   0.64285   0.79362   0.79602
  Beta virt. eigenvalues --    0.83115   0.84698   1.00459   1.03645   1.04062
  Beta virt. eigenvalues --    1.07353   1.07624   1.10480   1.13807   1.14124
  Beta virt. eigenvalues --    1.15555   1.15624   1.17527   1.17639   1.18903
  Beta virt. eigenvalues --    1.20380   1.22038   1.25120   1.27046   1.28452
  Beta virt. eigenvalues --    1.30274   1.42279   1.43549   1.44356   1.45516
  Beta virt. eigenvalues --    1.45634   1.53500   1.53636   1.58495   1.60440
  Beta virt. eigenvalues --    1.60496   1.65724   1.65832   1.67301   1.67449
  Beta virt. eigenvalues --    1.79062   1.79392   1.85255   1.88487   2.01063
  Beta virt. eigenvalues --    2.47453   2.47832   2.49856   2.63647   2.74785
  Beta virt. eigenvalues --    2.74990   2.82491   2.82631   2.88829   2.89033
  Beta virt. eigenvalues --    2.98055   2.98645   3.01203   3.12228   3.14938
  Beta virt. eigenvalues --    3.22073   3.22364   3.38860   3.39422   3.45931
  Beta virt. eigenvalues --    3.48269   3.59216   3.66540   3.66555   3.75758
  Beta virt. eigenvalues --    3.75883   3.87418   4.06728   4.07105   4.17131
  Beta virt. eigenvalues --    4.22293   4.25392   4.25548   4.35291   4.35545
  Beta virt. eigenvalues --    4.39430   4.93816   5.13138   5.13397   5.21657
  Beta virt. eigenvalues --    5.22009   5.30894   5.37634   5.38202   5.88486
  Beta virt. eigenvalues --    6.04406   6.04802   6.29780  13.48692  58.91673
  Beta virt. eigenvalues --   58.95080
     Alpha Molecular Orbital Coefficients
                           1         2         3         4         5
                           O         O         O         O         O
     EIGENVALUES --   -11.28105  -7.73975  -7.72920  -5.57131  -5.56564
   1 1   C  1S          0.97814  -0.00001   0.00000  -0.00002   0.00000
   2        2S         -0.00788   0.00000   0.00001  -0.00012   0.00001
   3        3S          0.04239  -0.00004   0.00000   0.00004   0.00001
   4        4S          0.00541   0.00078  -0.00002   0.00060  -0.00018
   5        5PX         0.00001   0.00000   0.00000   0.00000   0.00000
   6        5PY         0.00000   0.00000   0.00000   0.00000   0.00000
   7        5PZ         0.00018  -0.00001   0.00001  -0.00001   0.00001
   8        6PX         0.00001  -0.00005   0.00000   0.00006   0.00002
   9        6PY         0.00001   0.00000   0.00000  -0.00001   0.00000
  10        6PZ        -0.00026   0.00011  -0.00001  -0.00003  -0.00006
  11        7PX         0.00002   0.00000   0.00000   0.00007  -0.00001
  12        7PY         0.00000  -0.00001   0.00000  -0.00002   0.00000
  13        7PZ         0.00027   0.00019   0.00000   0.00047  -0.00005
  14        8D 0        0.00014   0.00000   0.00000  -0.00007   0.00001
  15        8D+1       -0.00001   0.00000   0.00000  -0.00001   0.00000
  16        8D-1        0.00000   0.00000   0.00000   0.00000   0.00000
  17        8D+2        0.00000   0.00000   0.00000   0.00000   0.00000
  18        8D-2        0.00000   0.00000   0.00000   0.00000   0.00000
  19        9D 0       -0.00018   0.00005  -0.00001   0.00016  -0.00005
  20        9D+1        0.00000   0.00000   0.00000   0.00003  -0.00001
  21        9D-1        0.00000   0.00000   0.00000  -0.00001   0.00000
  22        9D+2        0.00000  -0.00003   0.00000   0.00004   0.00001
  23        9D-2        0.00000   0.00001   0.00000  -0.00001   0.00000
  24       10F 0        0.00018   0.00001   0.00000   0.00002  -0.00001
  25       10F+1       -0.00001   0.00000   0.00000   0.00000   0.00000
  26       10F-1        0.00000   0.00000   0.00000   0.00000   0.00000
  27       10F+2        0.00001   0.00000   0.00000   0.00001   0.00000
  28       10F-2       -0.00001   0.00000   0.00000   0.00000   0.00000
  29       10F+3        0.00060   0.00002   0.00000  -0.00001   0.00000
  30       10F-3       -0.00022  -0.00001   0.00000   0.00001   0.00000
  31 2   I  1S         -0.00001   1.00003  -0.00115  -0.00271  -0.00002
  32        2S         -0.00006   0.00016  -0.00002   0.00108  -0.00009
  33        3S         -0.00003   0.00027  -0.00013   0.00087  -0.00017
  34        4S         -0.00007  -0.00004   0.00029  -0.00214  -0.00046
  35        5S          0.00008  -0.00085  -0.00012   0.00088   0.00181
  36        6PX        -0.00001  -0.00020   0.00000  -0.02905  -0.00053
  37        6PY         0.00000   0.00008   0.00000   0.02086   0.00035
  38        6PZ        -0.00018   0.00266   0.00008   0.99543   0.01673
  39        7PX        -0.00001  -0.00001   0.00000  -0.00002  -0.00003
  40        7PY         0.00000   0.00000   0.00000  -0.00004   0.00001
  41        7PZ        -0.00036  -0.00023   0.00024  -0.00409   0.00032
  42        8PX         0.00001   0.00002   0.00000   0.00008   0.00002
  43        8PY         0.00000   0.00000   0.00000   0.00003  -0.00001
  44        8PZ         0.00022   0.00030  -0.00007   0.00477  -0.00029
  45        9PX         0.00002   0.00002   0.00000   0.00002  -0.00001
  46        9PY         0.00001  -0.00001   0.00000   0.00002   0.00001
  47        9PZ         0.00088   0.00001  -0.00009   0.00280   0.00076
  48       10D 0       -0.00002   0.00187  -0.00001   0.00192   0.00006
  49       10D+1        0.00000  -0.00006   0.00000  -0.00012   0.00000
  50       10D-1        0.00000   0.00006   0.00000   0.00007   0.00000
  51       10D+2        0.00000   0.00000   0.00000   0.00000   0.00000
  52       10D-2        0.00000   0.00000   0.00000   0.00000   0.00000
  53       11D 0       -0.00004   0.00050   0.00003  -0.00026  -0.00022
  54       11D+1        0.00001   0.00001   0.00000   0.00002   0.00001
  55       11D-1        0.00000   0.00001   0.00000  -0.00001  -0.00001
  56       11D+2        0.00000   0.00000   0.00000   0.00000   0.00000
  57       11D-2        0.00000   0.00000   0.00000   0.00000   0.00000
  58       12D 0        0.00013  -0.00089   0.00008   0.00018   0.00065
  59       12D+1       -0.00002  -0.00001   0.00000  -0.00003  -0.00003
  60       12D-1        0.00001  -0.00001   0.00000   0.00002   0.00002
  61       12D+2        0.00000   0.00000   0.00000   0.00000   0.00000
  62       12D-2        0.00000   0.00000   0.00000   0.00000   0.00000
  63       13F 0       -0.00008  -0.00004   0.00001   0.00054   0.00012
  64       13F+1       -0.00001   0.00001   0.00000  -0.00004  -0.00001
  65       13F-1        0.00000   0.00000   0.00000   0.00003   0.00001
  66       13F+2        0.00000   0.00000   0.00000   0.00000   0.00000
  67       13F-2        0.00000   0.00000   0.00000   0.00000   0.00000
  68       13F+3        0.00000   0.00000   0.00000   0.00000   0.00000
  69       13F-3        0.00000   0.00000   0.00000   0.00000   0.00000
  70 3   I  1S         -0.00001   0.00111   0.99992  -0.00009   0.00369
  71        2S         -0.00002  -0.00001  -0.00012   0.00006  -0.00145
  72        3S         -0.00008  -0.00022  -0.00021  -0.00004  -0.00115
  73        4S          0.00045   0.00032   0.00053   0.00063   0.00349
  74        5S         -0.00067   0.00024  -0.00016  -0.00144  -0.00233
  75        6PX         0.00001   0.00001   0.00005   0.00021  -0.00913
  76        6PY         0.00000  -0.00001  -0.00006  -0.00027   0.01554
  77        6PZ        -0.00003  -0.00024  -0.00365  -0.01624   0.99886
  78        7PX         0.00001   0.00002  -0.00001   0.00001   0.00003
  79        7PY        -0.00001  -0.00001   0.00001   0.00000  -0.00002
  80        7PZ        -0.00007  -0.00056   0.00026   0.00012  -0.00089
  81        8PX        -0.00001  -0.00001   0.00002   0.00000  -0.00006
  82        8PY         0.00000   0.00000  -0.00001   0.00000   0.00004
  83        8PZ         0.00002   0.00021  -0.00040  -0.00019   0.00111
  84        9PX        -0.00002   0.00000   0.00001  -0.00002  -0.00003
  85        9PY         0.00001   0.00000   0.00000   0.00002   0.00002
  86        9PZ         0.00036  -0.00001  -0.00009   0.00066   0.00094
  87       10D 0       -0.00001   0.00000   0.00258   0.00003  -0.00293
  88       10D+1        0.00000   0.00000  -0.00006   0.00000   0.00011
  89       10D-1        0.00000   0.00000   0.00007   0.00000  -0.00010
  90       10D+2        0.00000   0.00000   0.00000   0.00000   0.00000
  91       10D-2        0.00000   0.00000   0.00000   0.00000   0.00000
  92       11D 0        0.00006   0.00003  -0.00004   0.00017   0.00070
  93       11D+1        0.00000   0.00000  -0.00001  -0.00001  -0.00005
  94       11D-1        0.00000   0.00000   0.00000   0.00001   0.00003
  95       11D+2        0.00000   0.00000   0.00000   0.00000   0.00000
  96       11D-2        0.00000   0.00000   0.00000   0.00000   0.00000
  97       12D 0       -0.00014   0.00025  -0.00015  -0.00031  -0.00088
  98       12D+1        0.00001  -0.00002   0.00001   0.00001   0.00004
  99       12D-1       -0.00001   0.00001  -0.00001  -0.00001  -0.00003
 100       12D+2        0.00000   0.00000   0.00000   0.00000   0.00000
 101       12D-2        0.00000   0.00000   0.00000   0.00000   0.00000
 102       13F 0        0.00000  -0.00005   0.00003   0.00001   0.00097
 103       13F+1        0.00000   0.00001   0.00000   0.00000  -0.00003
 104       13F-1        0.00000   0.00000   0.00000   0.00000   0.00004
 105       13F+2        0.00000   0.00000   0.00000   0.00000   0.00000
 106       13F-2        0.00000   0.00000   0.00000   0.00000   0.00000
 107       13F+3        0.00000   0.00000   0.00000   0.00000   0.00000
 108       13F-3        0.00000   0.00000   0.00000   0.00000   0.00000
 109 4   H  1S          0.00017   0.00000   0.00000   0.00004   0.00000
 110        2S         -0.00032  -0.00008  -0.00001  -0.00015   0.00000
 111        3S         -0.00072  -0.00011   0.00001   0.00005   0.00005
 112        4PX         0.00027   0.00000   0.00000  -0.00001   0.00000
 113        4PY        -0.00003   0.00000   0.00000   0.00000   0.00000
 114        4PZ        -0.00002  -0.00001   0.00000   0.00001   0.00000
 115        5PX         0.00013   0.00001   0.00000   0.00006   0.00001
 116        5PY        -0.00002   0.00000   0.00000  -0.00001   0.00000
 117        5PZ        -0.00004   0.00002   0.00000  -0.00004   0.00001
 118        6D 0        0.00007   0.00001   0.00000  -0.00001   0.00000
 119        6D+1        0.00003  -0.00001   0.00000   0.00001   0.00000
 120        6D-1        0.00000   0.00000   0.00000   0.00000   0.00000
 121        6D+2       -0.00022   0.00001   0.00000  -0.00002   0.00000
 122        6D-2        0.00005   0.00000   0.00000   0.00000   0.00000
 123 5   H  1S          0.00017   0.00000   0.00000   0.00003   0.00000
 124        2S         -0.00029  -0.00017   0.00000  -0.00003   0.00003
 125        3S         -0.00072  -0.00010   0.00001   0.00008   0.00004
 126        4PX        -0.00016   0.00000   0.00000   0.00001   0.00000
 127        4PY        -0.00021  -0.00001   0.00000   0.00001   0.00000
 128        4PZ        -0.00003  -0.00001   0.00000   0.00001   0.00000
 129        5PX        -0.00007  -0.00003   0.00000  -0.00001   0.00001
 130        5PY        -0.00009  -0.00003   0.00000  -0.00002   0.00001
 131        5PZ        -0.00005  -0.00001   0.00000   0.00000   0.00001
 132        6D 0        0.00007   0.00001   0.00000   0.00000   0.00000
 133        6D+1       -0.00002   0.00000   0.00000   0.00000   0.00000
 134        6D-1       -0.00003   0.00000   0.00000   0.00000   0.00000
 135        6D+2        0.00006   0.00000   0.00000   0.00000   0.00000
 136        6D-2       -0.00021   0.00000   0.00000  -0.00001   0.00000
 137 6   H  1S          0.00017   0.00000   0.00000   0.00003   0.00000
 138        2S         -0.00030  -0.00016  -0.00001  -0.00002   0.00003
 139        3S         -0.00072  -0.00010   0.00001   0.00008   0.00004
 140        4PX        -0.00010   0.00000   0.00000   0.00000   0.00000
 141        4PY         0.00025   0.00001   0.00000  -0.00001   0.00000
 142        4PZ        -0.00003  -0.00001   0.00000   0.00001   0.00000
 143        5PX        -0.00005  -0.00002   0.00000   0.00000   0.00001
 144        5PY         0.00011   0.00004   0.00000   0.00001  -0.00001
 145        5PZ        -0.00005  -0.00001   0.00000   0.00000   0.00001
 146        6D 0        0.00007   0.00001   0.00000   0.00000   0.00000
 147        6D+1       -0.00001   0.00000   0.00000   0.00000   0.00000
 148        6D-1        0.00004   0.00000   0.00000   0.00000   0.00000
 149        6D+2        0.00015   0.00000   0.00000   0.00001   0.00000
 150        6D-2        0.00016   0.00000   0.00000   0.00001   0.00000
                           6         7         8         9        10
                           O         O         O         O         O
     EIGENVALUES --    -5.56094  -5.56093  -5.54862  -5.54861  -2.30368
   1 1   C  1S          0.00000   0.00000   0.00000   0.00000  -0.00061
   2        2S         -0.00001   0.00000   0.00000   0.00000   0.00078
   3        3S          0.00000   0.00000   0.00000   0.00000   0.00006
   4        4S          0.00011   0.00000   0.00003   0.00000   0.00257
   5        5PX         0.00002   0.00001   0.00000   0.00000   0.00000
   6        5PY        -0.00001   0.00001   0.00000   0.00000   0.00000
   7        5PZ        -0.00001   0.00000   0.00000   0.00000   0.00061
   8        6PX        -0.00019  -0.00008  -0.00001   0.00000   0.00008
   9        6PY         0.00008  -0.00020   0.00001  -0.00002  -0.00005
  10        6PZ         0.00001   0.00000   0.00000   0.00000   0.00213
  11        7PX        -0.00028  -0.00012  -0.00004  -0.00002   0.00023
  12        7PY         0.00013  -0.00032   0.00002  -0.00005  -0.00006
  13        7PZ         0.00006   0.00000   0.00001   0.00000   0.00176
  14        8D 0       -0.00001   0.00000   0.00000   0.00000  -0.00003
  15        8D+1        0.00003   0.00001   0.00000   0.00000  -0.00001
  16        8D-1       -0.00001   0.00003   0.00000   0.00000   0.00000
  17        8D+2        0.00000   0.00000   0.00000   0.00000  -0.00001
  18        8D-2        0.00000   0.00000   0.00000   0.00000   0.00000
  19        9D 0        0.00003   0.00000   0.00000   0.00000   0.00163
  20        9D+1       -0.00013  -0.00006  -0.00001  -0.00001   0.00019
  21        9D-1        0.00006  -0.00014   0.00001  -0.00001  -0.00004
  22        9D+2       -0.00016  -0.00001  -0.00001   0.00000   0.00008
  23        9D-2        0.00000   0.00013   0.00000   0.00001  -0.00001
  24       10F 0        0.00001   0.00000   0.00000   0.00000   0.00032
  25       10F+1        0.00001   0.00001   0.00000   0.00000   0.00002
  26       10F-1       -0.00001   0.00001   0.00000   0.00000   0.00000
  27       10F+2       -0.00003   0.00000   0.00000   0.00000   0.00003
  28       10F-2        0.00000   0.00003   0.00000   0.00000   0.00000
  29       10F+3        0.00000   0.00000   0.00000   0.00000  -0.00001
  30       10F-3        0.00000   0.00000   0.00000   0.00000   0.00000
  31 2   I  1S          0.00012   0.00002   0.00000   0.00000  -0.00034
  32        2S          0.00006   0.00000   0.00000   0.00000   0.01115
  33        3S          0.00007   0.00000   0.00000   0.00000   0.00980
  34        4S         -0.00008   0.00000   0.00002   0.00000  -0.01721
  35        5S         -0.00009   0.00000  -0.00006  -0.00001  -0.00168
  36        6PX         0.92400   0.38434  -0.00065  -0.00031  -0.00004
  37        6PY        -0.38386   0.92442   0.00031  -0.00066  -0.00002
  38        6PZ         0.03463  -0.00818  -0.00010  -0.00001  -0.00185
  39        7PX        -0.00080  -0.00033   0.00000   0.00000   0.00005
  40        7PY         0.00033  -0.00080   0.00000   0.00000   0.00001
  41        7PZ        -0.00020  -0.00001  -0.00002   0.00000   0.00242
  42        8PX        -0.00145  -0.00060   0.00002   0.00001  -0.00002
  43        8PY         0.00060  -0.00145  -0.00001   0.00002   0.00001
  44        8PZ         0.00019   0.00003   0.00001   0.00000  -0.00018
  45        9PX        -0.00011  -0.00004  -0.00009  -0.00004   0.00000
  46        9PY         0.00005  -0.00011   0.00004  -0.00009   0.00000
  47        9PZ         0.00014   0.00001  -0.00001   0.00000  -0.00024
  48       10D 0        0.00017  -0.00002   0.00000   0.00000   0.97531
  49       10D+1        0.00165   0.00069  -0.00001  -0.00001  -0.01704
  50       10D-1       -0.00069   0.00166   0.00001  -0.00001   0.02445
  51       10D+2       -0.00007  -0.00008   0.00000   0.00000  -0.00028
  52       10D-2        0.00008  -0.00007   0.00000   0.00000  -0.00003
  53       11D 0        0.00001   0.00000   0.00001   0.00000   0.00069
  54       11D+1       -0.00008  -0.00003   0.00009   0.00004  -0.00005
  55       11D-1        0.00003  -0.00008  -0.00004   0.00009   0.00003
  56       11D+2        0.00001   0.00000   0.00000   0.00000  -0.00001
  57       11D-2        0.00000  -0.00001   0.00000   0.00000   0.00000
  58       12D 0       -0.00006   0.00000  -0.00003   0.00000  -0.00254
  59       12D+1       -0.00003  -0.00001  -0.00015  -0.00007   0.00000
  60       12D-1        0.00001  -0.00003   0.00007  -0.00015  -0.00004
  61       12D+2       -0.00001   0.00000   0.00000   0.00001   0.00001
  62       12D-2        0.00000   0.00000  -0.00001   0.00000   0.00000
  63       13F 0        0.00003  -0.00001  -0.00001   0.00000   0.00155
  64       13F+1        0.00032   0.00013  -0.00004  -0.00002  -0.00008
  65       13F-1       -0.00013   0.00032   0.00002  -0.00004   0.00007
  66       13F+2       -0.00001  -0.00002   0.00000   0.00000   0.00000
  67       13F-2        0.00002  -0.00001   0.00000   0.00000   0.00000
  68       13F+3        0.00000   0.00000   0.00000   0.00000   0.00000
  69       13F-3        0.00000   0.00000   0.00000   0.00000   0.00000
  70 3   I  1S          0.00000   0.00000  -0.00002   0.00000  -0.00085
  71        2S         -0.00001   0.00000   0.00004   0.00000   0.00573
  72        3S         -0.00002   0.00000   0.00003   0.00000  -0.00077
  73        4S          0.00005   0.00000  -0.00011  -0.00001   0.00209
  74        5S         -0.00001   0.00000   0.00007   0.00001  -0.00192
  75        6PX         0.00065   0.00027   0.90395   0.42989   0.00001
  76        6PY        -0.00027   0.00065  -0.42972   0.90394   0.00000
  77        6PZ         0.00002   0.00001   0.01504  -0.01012  -0.00002
  78        7PX         0.00001   0.00000  -0.00069  -0.00033   0.00025
  79        7PY        -0.00001   0.00001   0.00033  -0.00069  -0.00018
  80        7PZ        -0.00004   0.00000   0.00001   0.00001  -0.00783
  81        8PX         0.00002   0.00001  -0.00119  -0.00057  -0.00005
  82        8PY        -0.00001   0.00002   0.00057  -0.00120   0.00003
  83        8PZ         0.00003   0.00000  -0.00007   0.00001   0.00126
  84        9PX        -0.00010  -0.00004  -0.00020  -0.00009  -0.00009
  85        9PY         0.00004  -0.00010   0.00009  -0.00020   0.00007
  86        9PZ         0.00001   0.00000  -0.00005   0.00000   0.00290
  87       10D 0        0.00000   0.00000  -0.00005   0.00004   0.21341
  88       10D+1        0.00001   0.00000  -0.00219  -0.00104  -0.00857
  89       10D-1        0.00000   0.00001   0.00104  -0.00219   0.00744
  90       10D+2        0.00000   0.00000   0.00002   0.00006   0.00001
  91       10D-2        0.00000   0.00000  -0.00006   0.00002  -0.00016
  92       11D 0        0.00000   0.00000  -0.00002  -0.00001   0.00201
  93       11D+1       -0.00008  -0.00003   0.00014   0.00007  -0.00009
  94       11D-1        0.00003  -0.00008  -0.00007   0.00014   0.00007
  95       11D+2        0.00000   0.00000   0.00000  -0.00001   0.00000
  96       11D-2        0.00000   0.00000   0.00001   0.00000   0.00000
  97       12D 0        0.00003   0.00000   0.00003   0.00000   0.00142
  98       12D+1        0.00014   0.00006  -0.00005  -0.00002  -0.00007
  99       12D-1       -0.00006   0.00014   0.00002  -0.00005   0.00006
 100       12D+2        0.00000   0.00000   0.00000   0.00000   0.00000
 101       12D-2        0.00000   0.00000   0.00000   0.00000   0.00000
 102       13F 0       -0.00001   0.00000   0.00002  -0.00002  -0.00162
 103       13F+1       -0.00004  -0.00002   0.00058   0.00027   0.00011
 104       13F-1        0.00002  -0.00004  -0.00027   0.00057  -0.00009
 105       13F+2        0.00000   0.00000   0.00000  -0.00002   0.00000
 106       13F-2        0.00000   0.00000   0.00002   0.00000   0.00000
 107       13F+3        0.00000   0.00000   0.00000   0.00000   0.00000
 108       13F-3        0.00000   0.00000   0.00000   0.00000   0.00000
 109 4   H  1S          0.00000   0.00000   0.00000   0.00000   0.00019
 110        2S          0.00030   0.00009   0.00001   0.00001  -0.00002
 111        3S          0.00008   0.00002   0.00002   0.00001  -0.00029
 112        4PX        -0.00001   0.00000   0.00000   0.00000  -0.00002
 113        4PY         0.00000  -0.00001   0.00000   0.00000   0.00000
 114        4PZ         0.00001   0.00000   0.00000   0.00000   0.00006
 115        5PX        -0.00008  -0.00002   0.00000   0.00000   0.00000
 116        5PY         0.00000   0.00003   0.00000   0.00001   0.00000
 117        5PZ         0.00008   0.00002   0.00000   0.00000  -0.00027
 118        6D 0        0.00001   0.00000   0.00000   0.00000  -0.00005
 119        6D+1       -0.00003  -0.00001   0.00000   0.00000   0.00001
 120        6D-1        0.00000   0.00001   0.00000   0.00000   0.00000
 121        6D+2        0.00000   0.00000   0.00000   0.00000  -0.00004
 122        6D-2        0.00000   0.00000   0.00000   0.00000   0.00001
 123 5   H  1S          0.00001   0.00002   0.00000   0.00000   0.00017
 124        2S         -0.00009  -0.00032  -0.00001  -0.00003   0.00011
 125        3S         -0.00001  -0.00012  -0.00001  -0.00003  -0.00014
 126        4PX        -0.00001   0.00000   0.00000   0.00000   0.00001
 127        4PY         0.00000  -0.00001   0.00000   0.00000   0.00000
 128        4PZ         0.00000  -0.00001   0.00000   0.00000   0.00007
 129        5PX        -0.00001  -0.00007   0.00000  -0.00001  -0.00001
 130        5PY        -0.00003  -0.00007  -0.00001   0.00000  -0.00001
 131        5PZ        -0.00003  -0.00010   0.00000  -0.00001  -0.00016
 132        6D 0        0.00000  -0.00001   0.00000   0.00000  -0.00004
 133        6D+1        0.00000  -0.00002   0.00000   0.00000   0.00000
 134        6D-1       -0.00001  -0.00002   0.00000   0.00000   0.00002
 135        6D+2        0.00000   0.00000   0.00000   0.00000   0.00002
 136        6D-2        0.00000  -0.00001   0.00000   0.00000  -0.00005
 137 6   H  1S          0.00002  -0.00001   0.00000   0.00000   0.00017
 138        2S         -0.00025   0.00023  -0.00003   0.00002   0.00017
 139        3S         -0.00007   0.00009  -0.00002   0.00002  -0.00012
 140        4PX        -0.00001  -0.00001   0.00000   0.00000   0.00001
 141        4PY         0.00000  -0.00001   0.00000   0.00000  -0.00001
 142        4PZ         0.00000   0.00000   0.00000   0.00000   0.00007
 143        5PX        -0.00003   0.00004   0.00000   0.00001   0.00000
 144        5PY         0.00007  -0.00006   0.00001   0.00000  -0.00001
 145        5PZ        -0.00008   0.00007  -0.00001   0.00000  -0.00014
 146        6D 0       -0.00001   0.00000   0.00000   0.00000  -0.00004
 147        6D+1        0.00000   0.00002   0.00000   0.00000   0.00000
 148        6D-1        0.00002  -0.00002   0.00000   0.00000  -0.00002
 149        6D+2        0.00000   0.00000   0.00000   0.00000   0.00003
 150        6D-2        0.00001   0.00000   0.00000   0.00000   0.00003
                          11        12        13        14        15
                           O         O         O         O         O
     EIGENVALUES --    -2.29680  -2.29679  -2.29169  -2.28654  -2.28654
   1 1   C  1S         -0.00005   0.00000   0.00010   0.00000   0.00000
   2        2S          0.00005   0.00000  -0.00031   0.00002   0.00000
   3        3S          0.00001   0.00000  -0.00001   0.00000   0.00000
   4        4S          0.00014  -0.00001  -0.00118   0.00012   0.00001
   5        5PX        -0.00002  -0.00001  -0.00001  -0.00001   0.00000
   6        5PY         0.00001  -0.00003   0.00000   0.00000  -0.00001
   7        5PZ         0.00004   0.00000  -0.00014   0.00001   0.00000
   8        6PX        -0.00063  -0.00024   0.00002   0.00002   0.00001
   9        6PY         0.00023  -0.00060   0.00000  -0.00001   0.00001
  10        6PZ         0.00017   0.00000  -0.00026   0.00001   0.00000
  11        7PX        -0.00062  -0.00024  -0.00002  -0.00004  -0.00002
  12        7PY         0.00025  -0.00066   0.00001   0.00002  -0.00006
  13        7PZ         0.00017   0.00000  -0.00035   0.00004   0.00000
  14        8D 0       -0.00001   0.00000  -0.00004   0.00000   0.00000
  15        8D+1        0.00001   0.00000   0.00000  -0.00001   0.00000
  16        8D-1        0.00000   0.00001   0.00000   0.00000  -0.00001
  17        8D+2        0.00001   0.00000   0.00000   0.00000   0.00000
  18        8D-2        0.00000   0.00000   0.00000   0.00000   0.00000
  19        9D 0        0.00017   0.00000  -0.00008  -0.00001   0.00000
  20        9D+1       -0.00056  -0.00022  -0.00001   0.00000   0.00000
  21        9D-1        0.00022  -0.00059   0.00000   0.00000   0.00000
  22        9D+2       -0.00044  -0.00004   0.00001   0.00003   0.00001
  23        9D-2        0.00003   0.00031  -0.00001  -0.00001   0.00000
  24       10F 0        0.00003   0.00000  -0.00005   0.00000   0.00000
  25       10F+1       -0.00006  -0.00002  -0.00001  -0.00001   0.00000
  26       10F-1        0.00002  -0.00006   0.00000   0.00000  -0.00001
  27       10F+2       -0.00008   0.00000   0.00000   0.00001   0.00000
  28       10F-2        0.00000   0.00008   0.00000   0.00000  -0.00001
  29       10F+3       -0.00001   0.00000  -0.00003   0.00000   0.00000
  30       10F-3        0.00000   0.00000   0.00001   0.00000   0.00000
  31 2   I  1S          0.00008   0.00000  -0.00041   0.00002   0.00000
  32        2S         -0.00009  -0.00001   0.00057  -0.00002   0.00000
  33        3S          0.00033   0.00001  -0.00335   0.00009   0.00001
  34        4S         -0.00061  -0.00002   0.00635  -0.00015  -0.00002
  35        5S         -0.00002   0.00001  -0.00159   0.00000   0.00000
  36        6PX        -0.00222  -0.00085  -0.00002  -0.00030  -0.00012
  37        6PY         0.00085  -0.00223   0.00001   0.00012  -0.00030
  38        6PZ        -0.00004   0.00003   0.00054  -0.00003   0.00000
  39        7PX         0.00045   0.00017  -0.00012  -0.00105  -0.00041
  40        7PY        -0.00018   0.00045   0.00011   0.00041  -0.00105
  41        7PZ        -0.00015   0.00000   0.00603  -0.00019   0.00000
  42        8PX         0.00085   0.00033   0.00003   0.00035   0.00014
  43        8PY        -0.00032   0.00085  -0.00002  -0.00014   0.00035
  44        8PZ         0.00007  -0.00001  -0.00092   0.00005   0.00000
  45        9PX        -0.00020  -0.00007   0.00006   0.00061   0.00024
  46        9PY         0.00008  -0.00020  -0.00006  -0.00024   0.00061
  47        9PZ         0.00021   0.00001  -0.00321   0.00012   0.00000
  48       10D 0        0.02807  -0.01712  -0.21793   0.00552  -0.00112
  49       10D+1        0.93067   0.35678   0.01709   0.07372   0.02910
  50       10D-1       -0.35621   0.93081  -0.01058  -0.02891   0.07401
  51       10D+2       -0.00759  -0.01970   0.00002   0.00019  -0.00068
  52       10D-2        0.01968  -0.00714   0.00021   0.00067   0.00033
  53       11D 0       -0.00003   0.00000   0.00121  -0.00003   0.00001
  54       11D+1       -0.00030  -0.00011  -0.00005  -0.00038  -0.00015
  55       11D-1        0.00011  -0.00030   0.00004   0.00015  -0.00038
  56       11D+2       -0.00004  -0.00004   0.00000   0.00000   0.00001
  57       11D-2        0.00004  -0.00007   0.00000  -0.00001   0.00000
  58       12D 0       -0.00017   0.00002   0.00124  -0.00007   0.00000
  59       12D+1       -0.00079  -0.00030  -0.00002  -0.00040  -0.00016
  60       12D-1        0.00030  -0.00080   0.00003   0.00015  -0.00040
  61       12D+2       -0.00006  -0.00002   0.00000   0.00000   0.00000
  62       12D-2        0.00002  -0.00001   0.00000   0.00000  -0.00001
  63       13F 0        0.00009  -0.00002   0.00081  -0.00005   0.00001
  64       13F+1        0.00105   0.00040  -0.00003  -0.00045  -0.00018
  65       13F-1       -0.00040   0.00106   0.00003   0.00017  -0.00045
  66       13F+2       -0.00003  -0.00006   0.00000   0.00001   0.00002
  67       13F-2        0.00006  -0.00004   0.00000  -0.00002   0.00001
  68       13F+3        0.00000   0.00000   0.00000   0.00000   0.00000
  69       13F-3        0.00000   0.00000   0.00000   0.00000   0.00000
  70 3   I  1S          0.00003   0.00000  -0.00169  -0.00002   0.00000
  71        2S         -0.00023   0.00000   0.01039   0.00008   0.00000
  72        3S         -0.00009   0.00000   0.00454  -0.00007   0.00000
  73        4S          0.00016   0.00000  -0.00705   0.00018   0.00001
  74        5S          0.00001  -0.00001  -0.00119  -0.00009   0.00000
  75        6PX        -0.00016  -0.00006   0.00001   0.00297   0.00117
  76        6PY         0.00006  -0.00016   0.00002  -0.00117   0.00297
  77        6PZ        -0.00009   0.00000   0.00233   0.00009  -0.00003
  78        7PX         0.00114   0.00044   0.00009  -0.00036  -0.00014
  79        7PY        -0.00044   0.00114  -0.00004   0.00014  -0.00036
  80        7PZ         0.00007  -0.00002  -0.00054   0.00003   0.00001
  81        8PX        -0.00013  -0.00005  -0.00008  -0.00114  -0.00045
  82        8PY         0.00005  -0.00013   0.00003   0.00045  -0.00115
  83        8PZ         0.00003   0.00000   0.00028  -0.00012   0.00001
  84        9PX        -0.00055  -0.00021  -0.00003   0.00026   0.00010
  85        9PY         0.00021  -0.00055   0.00001  -0.00010   0.00026
  86        9PZ        -0.00004   0.00001   0.00016   0.00002   0.00000
  87       10D 0       -0.01644   0.00151   0.97349   0.03438  -0.01864
  88       10D+1       -0.07212  -0.02788  -0.02494   0.92581   0.36453
  89       10D-1        0.02733  -0.07270   0.02946  -0.36378   0.92595
  90       10D+2        0.00082   0.00186  -0.00013  -0.00605  -0.02048
  91       10D-2       -0.00185   0.00082  -0.00038   0.02048  -0.00605
  92       11D 0       -0.00010   0.00001   0.00329   0.00007  -0.00004
  93       11D+1       -0.00054  -0.00021  -0.00009   0.00203   0.00080
  94       11D-1        0.00020  -0.00054   0.00010  -0.00080   0.00203
  95       11D+2        0.00000   0.00001   0.00000   0.00001  -0.00003
  96       11D-2       -0.00001   0.00001   0.00000   0.00003   0.00001
  97       12D 0       -0.00001   0.00001   0.00023   0.00001  -0.00001
  98       12D+1       -0.00039  -0.00015  -0.00001   0.00046   0.00018
  99       12D-1        0.00015  -0.00039   0.00001  -0.00018   0.00046
 100       12D+2        0.00001   0.00001   0.00000   0.00001   0.00000
 101       12D-2       -0.00001   0.00001   0.00000   0.00000   0.00001
 102       13F 0        0.00008  -0.00002  -0.00156  -0.00007   0.00004
 103       13F+1        0.00059   0.00023   0.00008  -0.00139  -0.00055
 104       13F-1       -0.00022   0.00059  -0.00008   0.00055  -0.00139
 105       13F+2       -0.00002  -0.00003   0.00000   0.00003   0.00006
 106       13F-2        0.00003  -0.00002   0.00000  -0.00006   0.00003
 107       13F+3        0.00000   0.00000   0.00000   0.00000   0.00000
 108       13F-3        0.00000   0.00000   0.00000   0.00000   0.00000
 109 4   H  1S         -0.00003  -0.00001  -0.00003   0.00000   0.00000
 110        2S          0.00075   0.00018   0.00019  -0.00006  -0.00001
 111        3S          0.00032   0.00008   0.00013  -0.00003  -0.00001
 112        4PX        -0.00001  -0.00001   0.00000   0.00000   0.00000
 113        4PY         0.00001  -0.00002   0.00000   0.00000   0.00000
 114        4PZ         0.00001   0.00000   0.00000   0.00001   0.00000
 115        5PX        -0.00021  -0.00004  -0.00006   0.00004   0.00001
 116        5PY         0.00001   0.00005   0.00001  -0.00001   0.00001
 117        5PZ         0.00029   0.00008  -0.00001  -0.00005  -0.00001
 118        6D 0        0.00002   0.00001  -0.00001   0.00000   0.00000
 119        6D+1       -0.00007  -0.00001   0.00001   0.00001   0.00000
 120        6D-1        0.00000   0.00003   0.00000   0.00000   0.00000
 121        6D+2        0.00001   0.00000   0.00000   0.00000   0.00000
 122        6D-2        0.00000   0.00000   0.00000   0.00000   0.00000
 123 5   H  1S          0.00003   0.00007  -0.00003   0.00000   0.00000
 124        2S         -0.00019  -0.00064   0.00024  -0.00002  -0.00001
 125        3S         -0.00007  -0.00036   0.00013   0.00000   0.00001
 126        4PX        -0.00001   0.00000   0.00000   0.00000   0.00000
 127        4PY         0.00001  -0.00001   0.00001   0.00000   0.00000
 128        4PZ         0.00001   0.00001   0.00000   0.00000  -0.00001
 129        5PX        -0.00005  -0.00014   0.00006   0.00001   0.00001
 130        5PY        -0.00003  -0.00014   0.00006  -0.00001   0.00001
 131        5PZ        -0.00011  -0.00035   0.00003   0.00001   0.00004
 132        6D 0       -0.00001  -0.00002  -0.00001   0.00000   0.00000
 133        6D+1        0.00001  -0.00005   0.00000   0.00000   0.00001
 134        6D-1       -0.00003  -0.00005   0.00000   0.00000   0.00001
 135        6D+2       -0.00001   0.00000   0.00000   0.00000   0.00000
 136        6D-2       -0.00001  -0.00001   0.00001   0.00000   0.00000
 137 6   H  1S          0.00006  -0.00005  -0.00003   0.00000   0.00000
 138        2S         -0.00046   0.00046   0.00023  -0.00002   0.00001
 139        3S         -0.00023   0.00028   0.00013   0.00000  -0.00001
 140        4PX        -0.00001  -0.00001   0.00000   0.00000   0.00000
 141        4PY         0.00000  -0.00001  -0.00001   0.00000   0.00000
 142        4PZ         0.00001   0.00000   0.00000   0.00000   0.00000
 143        5PX        -0.00008   0.00007   0.00004   0.00002   0.00000
 144        5PY         0.00011  -0.00013  -0.00007   0.00000   0.00002
 145        5PZ        -0.00026   0.00025   0.00002   0.00003  -0.00003
 146        6D 0       -0.00002   0.00002  -0.00001   0.00000   0.00000
 147        6D+1        0.00000   0.00004   0.00000   0.00000   0.00000
 148        6D-1        0.00005  -0.00004   0.00000  -0.00001   0.00001
 149        6D+2        0.00000  -0.00001   0.00000   0.00000   0.00000
 150        6D-2        0.00002   0.00000   0.00000   0.00000   0.00000
                          16        17        18        19        20
                           O         O         O         O         O
     EIGENVALUES --    -2.28304  -2.28304  -2.27126  -2.27126  -0.99978
   1 1   C  1S          0.00000   0.00000   0.00000   0.00000  -0.18183
   2        2S          0.00000  -0.00002   0.00000   0.00000   0.43576
   3        3S          0.00000   0.00000   0.00000   0.00000   0.09373
   4        4S         -0.00001  -0.00004   0.00000  -0.00001   0.20059
   5        5PX         0.00000  -0.00001   0.00000   0.00000   0.00056
   6        5PY         0.00001   0.00000   0.00000   0.00000  -0.00003
   7        5PZ         0.00000   0.00000   0.00000   0.00000   0.00127
   8        6PX         0.00000   0.00005   0.00000   0.00000   0.00095
   9        6PY        -0.00018   0.00003  -0.00001   0.00000  -0.00011
  10        6PZ         0.00000   0.00001   0.00000   0.00000   0.01594
  11        7PX         0.00000   0.00000   0.00000   0.00000   0.00046
  12        7PY        -0.00011   0.00001   0.00000   0.00000  -0.00013
  13        7PZ         0.00000   0.00000   0.00000   0.00000  -0.00045
  14        8D 0        0.00000   0.00000   0.00000   0.00000  -0.00198
  15        8D+1        0.00000   0.00000   0.00000   0.00000   0.00009
  16        8D-1        0.00000   0.00000   0.00000   0.00000   0.00004
  17        8D+2        0.00000   0.00000   0.00000   0.00000   0.00003
  18        8D-2        0.00000   0.00000   0.00000   0.00000  -0.00001
  19        9D 0        0.00000   0.00001   0.00000   0.00000   0.00884
  20        9D+1        0.00000  -0.00001   0.00000   0.00000   0.00048
  21        9D-1       -0.00005   0.00000   0.00000   0.00000  -0.00016
  22        9D+2        0.00006   0.00008   0.00001   0.00001   0.00014
  23        9D-2        0.00015  -0.00005   0.00001  -0.00001  -0.00006
  24       10F 0        0.00000   0.00000   0.00000   0.00000   0.00329
  25       10F+1        0.00000  -0.00001   0.00000   0.00000   0.00009
  26       10F-1        0.00001   0.00000   0.00000   0.00000  -0.00006
  27       10F+2        0.00000   0.00000   0.00000   0.00000   0.00015
  28       10F-2        0.00001   0.00000   0.00000   0.00000  -0.00009
  29       10F+3        0.00000   0.00000   0.00000   0.00000   0.00549
  30       10F-3        0.00000   0.00000   0.00000   0.00000  -0.00203
  31 2   I  1S          0.00000   0.00000   0.00000   0.00000  -0.00375
  32        2S          0.00000   0.00002   0.00000   0.00000   0.26511
  33        3S          0.00000   0.00001   0.00000   0.00000  -0.00926
  34        4S          0.00001  -0.00001   0.00000   0.00000   0.00965
  35        5S          0.00000  -0.00001   0.00000   0.00000  -0.00375
  36        6PX         0.00002   0.00006   0.00000   0.00001  -0.00002
  37        6PY         0.00008  -0.00002   0.00000   0.00000   0.00000
  38        6PZ         0.00000   0.00000   0.00000   0.00000  -0.00101
  39        7PX        -0.00001  -0.00013   0.00000   0.00002  -0.00251
  40        7PY        -0.00014   0.00002   0.00002   0.00000   0.00077
  41        7PZ         0.00000   0.00000   0.00000   0.00000  -0.04290
  42        8PX         0.00000   0.00000   0.00000  -0.00001   0.00013
  43        8PY        -0.00003   0.00001  -0.00001   0.00000  -0.00002
  44        8PZ         0.00000   0.00000   0.00000   0.00000   0.00466
  45        9PX         0.00001   0.00006   0.00000  -0.00001   0.00070
  46        9PY         0.00008  -0.00001  -0.00001   0.00000  -0.00022
  47        9PZ         0.00000   0.00001   0.00000   0.00000   0.01219
  48       10D 0       -0.00048   0.00041   0.00001  -0.00003  -0.01847
  49       10D+1       -0.00783   0.01979  -0.00008  -0.00053  -0.00025
  50       10D-1        0.01934   0.00790  -0.00053   0.00007  -0.00014
  51       10D+2        0.44761   0.89387  -0.00245  -0.00411  -0.00003
  52       10D-2        0.89388  -0.44760  -0.00411   0.00245   0.00002
  53       11D 0        0.00000   0.00000   0.00000   0.00000   0.00400
  54       11D+1       -0.00001  -0.00008   0.00000   0.00000  -0.00005
  55       11D-1       -0.00008   0.00001   0.00000   0.00000   0.00003
  56       11D+2       -0.00017  -0.00033   0.00002   0.00003   0.00000
  57       11D-2       -0.00034   0.00017   0.00003  -0.00002  -0.00001
  58       12D 0        0.00000   0.00000   0.00000   0.00000   0.01367
  59       12D+1       -0.00002  -0.00003   0.00000   0.00001   0.00019
  60       12D-1       -0.00006   0.00002   0.00001   0.00000   0.00015
  61       12D+2        0.00054   0.00108  -0.00003  -0.00005   0.00006
  62       12D-2        0.00108  -0.00054  -0.00005   0.00003  -0.00002
  63       13F 0        0.00000   0.00000   0.00000   0.00000  -0.00492
  64       13F+1        0.00000   0.00006   0.00000   0.00001  -0.00043
  65       13F-1        0.00007   0.00000   0.00001   0.00000   0.00008
  66       13F+2        0.00033   0.00067   0.00003   0.00005  -0.00004
  67       13F-2        0.00067  -0.00033   0.00005  -0.00003   0.00001
  68       13F+3       -0.00007  -0.00005   0.00000   0.00000   0.00007
  69       13F-3       -0.00005   0.00007   0.00000   0.00000  -0.00003
  70 3   I  1S          0.00000   0.00000   0.00000   0.00000  -0.00122
  71        2S          0.00000   0.00000   0.00000   0.00000   0.10164
  72        3S          0.00000   0.00000   0.00000   0.00000  -0.00341
  73        4S          0.00000   0.00000   0.00000  -0.00001   0.00911
  74        5S          0.00000   0.00000   0.00000   0.00000  -0.01118
  75        6PX         0.00000   0.00000  -0.00001  -0.00002   0.00004
  76        6PY         0.00000   0.00000  -0.00002   0.00001  -0.00001
  77        6PZ         0.00000   0.00000   0.00000   0.00000   0.00007
  78        7PX         0.00000   0.00001  -0.00001  -0.00005   0.00065
  79        7PY         0.00001   0.00000  -0.00005   0.00001  -0.00057
  80        7PZ         0.00000   0.00000   0.00000   0.00000  -0.02936
  81        8PX         0.00000   0.00000   0.00000   0.00001  -0.00008
  82        8PY         0.00000   0.00000   0.00001   0.00000   0.00005
  83        8PZ         0.00000   0.00000   0.00000   0.00000   0.00145
  84        9PX         0.00000   0.00001   0.00000   0.00002  -0.00030
  85        9PY         0.00000   0.00000   0.00002   0.00000   0.00025
  86        9PZ         0.00000   0.00000   0.00000   0.00000   0.01238
  87       10D 0        0.00008  -0.00013  -0.00040   0.00019  -0.00820
  88       10D+1       -0.00006  -0.00108  -0.00774   0.02000   0.00026
  89       10D-1       -0.00119   0.00006   0.02000   0.00775  -0.00026
  90       10D+2        0.00211   0.00419   0.51346   0.85773   0.00000
  91       10D-2        0.00419  -0.00211   0.85773  -0.51346   0.00000
  92       11D 0        0.00000   0.00000   0.00000   0.00000   0.00459
  93       11D+1        0.00000   0.00000   0.00001   0.00002  -0.00014
  94       11D-1        0.00000   0.00000   0.00002  -0.00001   0.00014
  95       11D+2        0.00003   0.00005  -0.00017  -0.00029   0.00000
  96       11D-2        0.00005  -0.00003  -0.00029   0.00017   0.00000
  97       12D 0        0.00000   0.00000   0.00000   0.00000   0.00184
  98       12D+1        0.00000  -0.00002  -0.00001   0.00004  -0.00002
  99       12D-1       -0.00002   0.00000   0.00004   0.00001   0.00004
 100       12D+2       -0.00004  -0.00009   0.00058   0.00097   0.00000
 101       12D-2       -0.00009   0.00004   0.00097  -0.00058   0.00000
[...]
      3      1                                                                4                     8               4       2        
      4      5                                                                4                     6               2       2      3 
      3      6                                                                3                     3               2       9      6 
 
      X      X                                                                X                     X               X       X      X 
             X                                                                X                     X                       X      X 
             X                                                                X                     X                       X        
             X                                                                X                     X                                
             X                                                                X                     X                                
             X                                                                X                     X                                
             X                                                                                      X                                
             X                                                                                      X                                
                                                                                                    X                                
                                                                                                    X                                
                                                                                                    X                                
                                                                                                    X                                
                                                                                                    X                                
                                                                                                    X                                
                                                                                                    X                                
                                                                                                    X                                
                                                                                                    X                                
                                                                                                    X                                
                                                                                                    X                                
                                                                                                    X                                
 
 -------------------------------------------------------------------
 Center     Atomic                   Forces (Hartrees/Bohr)
 Number     Number              X              Y              Z
 -------------------------------------------------------------------
    1          6          -0.000000741   -0.000003203   -0.000002882
    2         53           0.000000655    0.000003232    0.000001070
    3         53          -0.000000262    0.000000800   -0.000000429
    4          1          -0.000000373   -0.000001675   -0.000000024
    5          1           0.000001595    0.000000466   -0.000005897
    6          1          -0.000000875    0.000000381    0.000008162
 -------------------------------------------------------------------
 Cartesian Forces:  Max     0.000008162 RMS     0.000002789
 Force constants in Cartesian coordinates: 
                1             2             3             4             5
      1  0.629740D+00
      2 -0.175921D-04  0.629726D+00
      3 -0.272020D-02 -0.362745D-02  0.483699D-01
      4 -0.863870D-03  0.565189D-05  0.242745D-03  0.247776D-02
      5  0.563209D-05 -0.864813D-03  0.288061D-03  0.000000D+00  0.247915D-02
      6  0.237569D-03  0.286001D-03  0.498934D-01  0.299655D-03  0.366833D-03
      7 -0.488696D-03 -0.230504D-05 -0.146155D-03 -0.745796D-03 -0.202552D-05
      8 -0.230646D-05 -0.488373D-03 -0.176892D-03 -0.201066D-05 -0.747058D-03
      9 -0.140892D-03 -0.170091D-03 -0.308013D-01 -0.454683D-03 -0.549270D-03
     10 -0.357162D+00  0.360428D-01  0.377333D-01 -0.787923D-03  0.118640D-03
     11  0.361276D-01 -0.614299D-01 -0.426486D-02  0.131633D-03  0.214824D-03
     12  0.501590D-01 -0.574966D-02 -0.228157D-01  0.167953D-02 -0.243202D-03
     13 -0.166689D+00 -0.146488D+00 -0.203641D-01 -0.146367D-03 -0.505267D-03
     14 -0.146488D+00 -0.252893D+00 -0.272174D-01 -0.504728D-03 -0.442900D-03
     15 -0.278598D-01 -0.372399D-01 -0.218142D-01 -0.105628D-02 -0.140829D-02
     16 -0.104537D+00  0.110460D+00 -0.147456D-01  0.661952D-04  0.382937D-03
     17  0.110375D+00 -0.314051D+00  0.349985D-01  0.369371D-03 -0.639202D-03
     18 -0.196757D-01  0.465011D-01 -0.228321D-01 -0.710967D-03  0.154587D-02
                6             7             8             9            10
      6  0.652935D-01
      7 -0.450236D-03  0.530891D-03
      8 -0.540721D-03  0.329173D-05  0.532188D-03
      9 -0.956984D-01  0.592792D-03  0.714924D-03  0.125190D+00
     10 -0.376528D-03  0.581815D-03 -0.862750D-04 -0.392049D-03  0.370528D+00
     11  0.000000D+00 -0.805614D-04 -0.112519D-03  0.510500D-04 -0.388631D-01
     12 -0.650370D-02  0.464243D-03 -0.513113D-04  0.436607D-03 -0.425539D-01
     13  0.185134D-03  0.133637D-03  0.342446D-03  0.235477D-03 -0.895616D-02
     14  0.247330D-03  0.342553D-03  0.334890D-03  0.315180D-03  0.577985D-02
     15 -0.650254D-02 -0.280953D-03 -0.375742D-03  0.442070D-03  0.326668D-02
     16  0.104406D-03 -0.118509D-04 -0.255146D-03  0.159356D-03 -0.420368D-02
     17 -0.358541D-03 -0.260953D-03  0.480871D-03 -0.361793D-03 -0.299190D-02
     18 -0.648219D-02 -0.179690D-03  0.429744D-03  0.430849D-03  0.232248D-02
               11            12            13            14            15
     11  0.517593D-01
     12  0.487769D-02  0.185494D-01
     13 -0.226866D-01 -0.475311D-02  0.165178D+00
     14  0.718721D-02  0.215242D-03  0.157839D+00  0.258063D+00
     15  0.386145D-02  0.513976D-02  0.231488D-01  0.309386D-01  0.175941D-01
     16  0.253711D-01 -0.499577D-02  0.104794D-01 -0.169682D-01  0.278158D-02
     17  0.238107D-02  0.951238D-03  0.114987D-01 -0.122491D-01  0.422392D-02
     18 -0.452443D-02  0.519372D-02  0.154787D-02 -0.449899D-02  0.514083D-02
               16            17            18
     16  0.982068D-01
     17 -0.118990D+00  0.324077D+00
     18  0.166960D-01 -0.394533D-01  0.185489D-01
 Force constants in internal coordinates: 
                1             2             3             4             5
      1 -0.913265D-03
      2  0.956421D-05  0.380232D+00
      3  0.881839D-05 -0.782691D-03  0.380229D+00
      4  0.111458D-04 -0.782011D-03 -0.782370D-03  0.380230D+00
      5  0.294934D-01 -0.445698D-03 -0.446002D-03 -0.445297D-03  0.125197D+00
      6  0.105742D-01 -0.463131D-02 -0.440253D-02 -0.440200D-02 -0.666293D-03
      7  0.105928D-01 -0.440227D-02 -0.463069D-02 -0.440218D-02 -0.675672D-03
      8  0.105445D-01 -0.440193D-02 -0.440229D-02 -0.463042D-02 -0.654110D-03
      9 -0.443363D-02  0.695138D-02  0.695219D-02 -0.826884D-02  0.279697D-03
     10 -0.442841D-02  0.694972D-02 -0.826967D-02  0.694869D-02  0.278166D-03
     11 -0.443058D-02 -0.826915D-02  0.695121D-02  0.694957D-02  0.278841D-03
     12  0.188441D-04  0.134483D-02 -0.269194D-02  0.134420D-02 -0.397717D-05
     13  0.257028D-05 -0.827509D-03  0.000000D+00  0.826500D-03  0.000000D+00
                6             7             8             9            10
      6  0.434140D-01
      7  0.157932D-01  0.434169D-01
      8  0.158006D-01  0.157978D-01  0.434055D-01
      9 -0.105183D-01 -0.105160D-01 -0.104218D-01  0.724263D-01
     10 -0.105028D-01 -0.104179D-01 -0.105059D-01 -0.296171D-01  0.724029D-01
     11 -0.104203D-01 -0.105070D-01 -0.105127D-01 -0.296100D-01 -0.296254D-01
     12 -0.270471D-02  0.540553D-02 -0.270085D-02 -0.373237D-03  0.746186D-03
     13  0.166115D-02  0.000000D+00 -0.165786D-02 -0.232049D-03  0.000000D+00
               11            12            13
     11  0.724134D-01
     12 -0.372895D-03  0.136455D-01
     13  0.230826D-03  0.375883D-05  0.172232D-02
 Leave Link  716 at Tue Feb 21 18:28:37 2012, MaxMem=  536870912 cpu:       0.1
 (Enter /soft/g03/g03/l103.exe)

 GradGradGradGradGradGradGradGradGradGradGradGradGradGradGradGradGradGrad
 Berny optimization.
 Internal  Forces:  Max     0.000016041 RMS     0.000005682
 Search for a saddle point.
 Step number   1 out of a maximum of   2
 All quantities printed in internal units (Hartrees-Bohrs-Radians)
 Swaping is turned off.
 Second derivative matrix not updated -- analytic derivatives used.
 The second derivative matrix:
                          R1        R2        R3        R4        R5
           R1          -0.00091
           R2           0.00001   0.38023
           R3           0.00001  -0.00078   0.38023
           R4           0.00001  -0.00078  -0.00078   0.38023
           R5           0.02949  -0.00045  -0.00045  -0.00045   0.12520
           A1           0.01057  -0.00463  -0.00440  -0.00440  -0.00067
           A2           0.01059  -0.00440  -0.00463  -0.00440  -0.00068
           A3           0.01054  -0.00440  -0.00440  -0.00463  -0.00065
           A4          -0.00443   0.00695   0.00695  -0.00827   0.00028
           A5          -0.00443   0.00695  -0.00827   0.00695   0.00028
           A6          -0.00443  -0.00827   0.00695   0.00695   0.00028
           A7           0.00002   0.00134  -0.00269   0.00134   0.00000
           A8           0.00000  -0.00083   0.00000   0.00083   0.00000
                          A1        A2        A3        A4        A5
           A1           0.04341
           A2           0.01579   0.04342
           A3           0.01580   0.01580   0.04341
           A4          -0.01052  -0.01052  -0.01042   0.07243
           A5          -0.01050  -0.01042  -0.01051  -0.02962   0.07240
           A6          -0.01042  -0.01051  -0.01051  -0.02961  -0.02963
           A7          -0.00270   0.00541  -0.00270  -0.00037   0.00075
           A8           0.00166   0.00000  -0.00166  -0.00023   0.00000
                          A6        A7        A8
           A6           0.07241
           A7          -0.00037   0.01365
           A8           0.00023   0.00000   0.00172
     Eigenvalues ---   -0.01138   0.00151   0.01098   0.02782   0.03025
     Eigenvalues ---    0.09114   0.10120   0.10121   0.13197   0.37940
     Eigenvalues ---    0.38184   0.381871000.00000
 Eigenvectors required to have negative eigenvalues:
                          R1        R2        R3        R4        R5
         1              0.95833  -0.00446  -0.00447  -0.00446  -0.20878
                          A1        A2        A3        A4        A5
         1             -0.10387  -0.10426  -0.10310   0.04349   0.04349
                          A6        A7        A8
         1              0.04348  -0.00059  -0.00006
 Angle between quadratic step and forces=  22.66 degrees.
 Linear search not attempted -- option 19 set.
 Iteration  1 RMS(Cart)=  0.00038676 RMS(Int)=  0.00000009
 Iteration  2 RMS(Cart)=  0.00000010 RMS(Int)=  0.00000000
 Variable       Old X    -DE/DX   Delta X   Delta X   Delta X     New X
                                 (Linear)    (Quad)   (Total)
    R1        5.06139   0.00000   0.00000  -0.00010  -0.00010   5.06129
    R2        2.03544   0.00000   0.00000   0.00000   0.00000   2.03544
    R3        2.03544   0.00000   0.00000   0.00000   0.00000   2.03544
    R4        2.03544   0.00000   0.00000   0.00000   0.00000   2.03544
    R5        5.08372   0.00000   0.00000   0.00002   0.00002   5.08374
    A1        1.69484   0.00000   0.00000   0.00003   0.00003   1.69487
    A2        1.69436   0.00001   0.00000   0.00050   0.00050   1.69487
    A3        1.69541  -0.00002   0.00000  -0.00054  -0.00054   1.69487
    A4        2.06808   0.00000   0.00000  -0.00002  -0.00002   2.06807
    A5        2.06805   0.00000   0.00000   0.00002   0.00002   2.06807
    A6        2.06806   0.00000   0.00000   0.00000   0.00000   2.06807
    A7        3.14171   0.00000   0.00000  -0.00012  -0.00012   3.14159
    A8        3.14142   0.00000   0.00000   0.00017   0.00017   3.14159
         Item               Value     Threshold  Converged?
 Maximum Force            0.000016     0.000450     YES
 RMS     Force            0.000006     0.000300     YES
 Maximum Displacement     0.001028     0.001800     YES
 RMS     Displacement     0.000387     0.001200     YES
 Predicted change in Energy=-7.338313D-09
 Optimization completed.
    -- Stationary point found.
                           ----------------------------
                           !   Optimized Parameters   !
                           ! (Angstroms and Degrees)  !
 --------------------------                            --------------------------
 ! Name  Definition              Value          Derivative Info.                !
 --------------------------------------------------------------------------------
 ! R1    R(1,2)                  2.6784         -DE/DX =    0.0                 !
 ! R2    R(1,4)                  1.0771         -DE/DX =    0.0                 !
 ! R3    R(1,5)                  1.0771         -DE/DX =    0.0                 !
 ! R4    R(1,6)                  1.0771         -DE/DX =    0.0                 !
 ! R5    R(2,3)                  2.6902         -DE/DX =    0.0                 !
 ! A1    A(2,1,4)               97.107          -DE/DX =    0.0                 !
 ! A2    A(2,1,5)               97.0798         -DE/DX =    0.0                 !
 ! A3    A(2,1,6)               97.1396         -DE/DX =    0.0                 !
 ! A4    A(4,1,5)              118.4925         -DE/DX =    0.0                 !
 ! A5    A(4,1,6)              118.4905         -DE/DX =    0.0                 !
 ! A6    A(5,1,6)              118.4914         -DE/DX =    0.0                 !
 ! A7    L(1,2,3,5,-1)         180.0069         -DE/DX =    0.0                 !
 ! A8    L(1,2,3,5,-2)         179.9899         -DE/DX =    0.0                 !
 --------------------------------------------------------------------------------
 GradGradGradGradGradGradGradGradGradGradGradGradGradGradGradGradGradGrad

 Leave Link  103 at Tue Feb 21 18:28:38 2012, MaxMem=  536870912 cpu:       0.5
 (Enter /soft/g03/g03/l9999.exe)

 Test job not archived.
 1\1\GINC-AN173\Freq\UMP2-FC\Gen\C1H3I2(2)\FLOUIS01\21-Feb-2012\0\\#P G
 EOM=ALLCHECK GUESS=READ SCRF=CHECK TEST GENCHK UMP2(FC)/CHKBAS FREQ\\J
 ob\\0,2\C,-0.00844246,-0.0042863601,-0.1669894219\I,0.0039783277,0.010
 9256739,2.5113132654\I,0.0167817689,0.0263631454,5.2014270991\H,1.0522
 316552,-0.1317136232,-0.3044501415\H,-0.6493352715,-0.8609168709,-0.29
 19116848\H,-0.4300940204,0.9772790349,-0.3044841162\\Version=AM64L-G03
 RevC.02\HF=-628.9168203\MP2=-629.5426408\PUHF=-628.9257723\PMP2-0=-629
 .5498071\S2=0.854562\S2-1=0.812252\S2A=0.752502\RMSD=0.000e+00\RMSF=2.
 789e-06\Dipole=-0.005182,-0.0063523,-1.1088625\DipoleDeriv=0.0151072,-
 0.000065,-0.0039764,-0.0000647,0.0151258,-0.0049363,-0.0040391,-0.0050
 816,-0.847948,-0.0864191,0.0000399,0.007938,0.0000393,-0.0863999,0.009
 5528,0.0079648,0.0097118,1.6142619,-0.0598662,-0.0000231,-0.0042091,-0
 .0000227,-0.0598752,-0.0050621,-0.0041712,-0.0050957,-0.9491025,0.0280
 927,0.0034821,-0.0467711,0.0038563,0.059201,0.0056053,0.0103277,-0.001
 185,0.061072,0.0483129,-0.0151212,0.0284732,-0.0151117,0.0393781,0.038
 0752,-0.005987,-0.0079663,0.0607612,0.0547727,0.0116873,0.0185454,0.01
 13035,0.0325701,-0.0432349,-0.0040951,0.0096168,0.0609553\Polar=54.370
 6423,0.002911,54.3717654,0.5043261,0.6112435,161.3993074\PG=C01 [X(C1H
 3I2)]\NImag=1\\0.62974038,-0.00001759,0.62972643,-0.00272020,-0.003627
 45,0.04836991,-0.00086387,0.00000565,0.00024274,0.00247776,0.00000563,
 -0.00086481,0.00028806,0.00000008,0.00247915,0.00023757,0.00028600,0.0
 4989337,0.00029966,0.00036683,0.06529347,-0.00048870,-0.00000231,-0.00
 014616,-0.00074580,-0.00000203,-0.00045024,0.00053089,-0.00000231,-0.0
 0048837,-0.00017689,-0.00000201,-0.00074706,-0.00054072,0.00000329,0.0
 0053219,-0.00014089,-0.00017009,-0.03080128,-0.00045468,-0.00054927,-0
 .09569841,0.00059279,0.00071492,0.12519016,-0.35716226,0.03604278,0.03
 773334,-0.00078792,0.00011864,-0.00037653,0.00058181,-0.00008627,-0.00
 039205,0.37052820,0.03612756,-0.06142985,-0.00426486,0.00013163,0.0002
 1482,-0.00000090,-0.00008056,-0.00011252,0.00005105,-0.03886309,0.0517
 5927,0.05015903,-0.00574966,-0.02281574,0.00167953,-0.00024320,-0.0065
 0370,0.00046424,-0.00005131,0.00043661,-0.04255393,0.00487769,0.018549
 35,-0.16668860,-0.14648807,-0.02036414,-0.00014637,-0.00050527,0.00018
 513,0.00013364,0.00034245,0.00023548,-0.00895616,-0.02268659,-0.004753
 11,0.16517805,-0.14648834,-0.25289281,-0.02721738,-0.00050473,-0.00044
 290,0.00024733,0.00034255,0.00033489,0.00031518,0.00577985,0.00718721,
 0.00021524,0.15783883,0.25806275,-0.02785980,-0.03723995,-0.02181417,-
 0.00105628,-0.00140829,-0.00650254,-0.00028095,-0.00037574,0.00044207,
 0.00326668,0.00386145,0.00513976,0.02314877,0.03093861,0.01759406,-0.1
 0453695,0.11045953,-0.01474559,0.00006620,0.00038294,0.00010441,-0.000
 01185,-0.00025515,0.00015936,-0.00420368,0.02537106,-0.00499577,0.0104
 7944,-0.01696816,0.00278158,0.09820684,0.11037505,-0.31405058,0.034998
 51,0.00036937,-0.00063920,-0.00035854,-0.00026095,0.00048087,-0.000361
 79,-0.00299190,0.00238107,0.00095124,0.01149866,-0.01224914,0.00422392
 ,-0.11899022,0.32407699,-0.01967571,0.04650114,-0.02283209,-0.00071097
 ,0.00154587,-0.00648219,-0.00017969,0.00042974,0.00043085,0.00232248,-
 0.00452443,0.00519372,0.00154787,-0.00449899,0.00514083,0.01669602,-0.
 03945334,0.01854887\\0.00000074,0.00000320,0.00000288,-0.00000066,-0.0
 0000323,-0.00000107,0.00000026,-0.00000080,0.00000043,0.00000037,0.000
 00168,0.00000002,-0.00000160,-0.00000047,0.00000590,0.00000087,-0.0000
 0038,-0.00000816\\\@


 QUANTUM MECHANICS IS BOHRING -- M.S. GORDON
 Job cpu time:  0 days  1 hours 45 minutes 59.0 seconds.
 File lengths (MBytes):  RWF=   9308 Int=      0 D2E=      0 Chk=     12 Scr=      1
 Normal termination of Gaussian 03 at Tue Feb 21 18:28:39 2012.
total 13696
drwx------    5 flouis01 2007001  131072 Feb 21 18:28 .
drwxrwxrwx 6728 root     root    2228224 Feb 21 18:28 ..
drwxr-xr-x    2 flouis01 2007001  131072 Feb 21 17:32 1.SPC_CCSDT_cc-pVTZ
drwxr-xr-x    2 flouis01 2007001  131072 Feb 21 17:32 2.SPC_CCSDT_cc-pVQZ
drwxr-xr-x    2 flouis01 2007001  131072 Feb 21 17:32 old
-rwxr-xr-x    1 flouis01 2007001    3138 Feb 21 17:32 stable.inp
-rw-r--r--    1 flouis01 2007001 1242123 Feb 21 17:32 stable.out
-rw-r--r--    1 flouis01 2007001     175 Feb 21 17:32 thermo1.dat
-rw-r--r--    1 flouis01 2007001    1127 Feb 21 17:32 thermo1.log
-rw-r--r--    1 flouis01 2007001     175 Feb 21 17:32 thermo2.dat
-rw-r--r--    1 flouis01 2007001    1032 Feb 21 17:32 thermo2.log
-rw-r--r--    1 flouis01 2007001     320 Feb 21 17:32 toto
-rw-r--r--    1 flouis01 2007001    1111 Feb 21 17:32 ts
-rwxr-xr-x    1 flouis01 2007001    3093 Feb 21 17:32 ts-bis.inp
-rw-r--r--    1 flouis01 2007001 4203812 Feb 21 17:32 ts-bis.out
-rw-r--r--    1 flouis01 2007001 1293302 Feb 21 17:32 ts.freqdebut
-rwxr-xr-x    1 flouis01 2007001    2811 Feb 21 17:32 ts.inp
-rw-r--r--    1 flouis01 2007001     962 Feb 21 17:32 ts.o62241
-rw-r--r--    1 flouis01 2007001 2914058 Feb 21 17:32 ts.opt1
/dlocal/run/antares-adm.62272.0
