 argument  1 = levulDeriv.nw
                                         
                                         


              Northwest Computational Chemistry Package (NWChem) 6.8
              ------------------------------------------------------


                    Environmental Molecular Sciences Laboratory
                       Pacific Northwest National Laboratory
                                Richland, WA 99352

                              Copyright (c) 1994-2017
                       Pacific Northwest National Laboratory
                            Battelle Memorial Institute

             NWChem is an open-source computational chemistry package
                        distributed under the terms of the
                      Educational Community License (ECL) 2.0
             A copy of the license is included with this distribution
                              in the LICENSE.TXT file

                                  ACKNOWLEDGMENT
                                  --------------

            This software and its documentation were developed at the
            EMSL at Pacific Northwest National Laboratory, a multiprogram
            national laboratory, operated for the U.S. Department of Energy
            by Battelle under Contract Number DE-AC05-76RL01830. Support
            for this work was provided by the Department of Energy Office
            of Biological and Environmental Research, Office of Basic
            Energy Sciences, and the Office of Advanced Scientific Computing.


           Job information
           ---------------

    hostname        = romeologin1.ro18.urca
    program         = /home/henon/lib/nwchem-6.8.1/bin/LINUX64/nwchem
    date            = Thu Apr 11 18:17:54 2019

    compiled        = Thu_Apr_11_18:01:01_2019
    source          = /home/henon/lib/nwchem-6.8.1
    nwchem branch   = 6.8.1
    nwchem revision = v6.8-133-ge032219
    ga revision     = 5.6.5
    use scalapack   = F
    input           = levulDeriv.nw
    prefix          = img.
    data base       = ./img.db
    status          = startup
    nproc           =        1
    time left       =     -1s



           Memory information
           ------------------

    heap     =   13107194 doubles =    100.0 Mbytes
    stack    =   13107199 doubles =    100.0 Mbytes
    global   =   26214400 doubles =    200.0 Mbytes (distinct from heap & stack)
    total    =   52428793 doubles =    400.0 Mbytes
    verify   = yes
    hardfail = no 


           Directory information
           ---------------------

  0 permanent = .
  0 scratch   = .




                                NWChem Input Module
                                -------------------



 Scaling coordinates for geometry "geometry" by  1.889725989
 (inverse scale =  0.529177249)

 C1  symmetry detected

          ------
          auto-z
          ------


                             Geometry "geometry" -> ""
                             -------------------------

 Output coordinates in angstroms (scale by  1.889725989 to convert to a.u.)

  No.       Tag          Charge          X              Y              Z
 ---- ---------------- ---------- -------------- -------------- --------------
    1 O                    8.0000    -0.95172747     3.32279189     0.25956895
    2 C                    6.0000     0.28097481     2.89743325     0.04421389
    3 O                    8.0000     1.25858729     3.57743227    -0.04203572
    4 C                    6.0000     0.35756294     1.41611458    -0.09054038
    5 C                    6.0000    -0.70611776     0.60956928    -0.01132328
    6 C                    6.0000    -0.57540216    -0.80864391    -0.15537428
    7 O                    8.0000    -1.58153561    -1.54370901    -0.08192750
    8 C                    6.0000     0.70070266    -1.59422558    -0.41600757
    9 N                    7.0000     0.29687402    -2.98274354    -0.38188836
   10 C                    6.0000     0.75451948    -3.79697062     0.75704734
   11 H                    1.0000    -0.04336327    -3.92465027     1.48295285
   12 H                    1.0000     1.61002001    -3.34088157     1.24880168
   13 H                    1.0000     1.05366235    -4.77663294     0.40139514
   14 H                    1.0000     0.47470286    -3.44453649    -1.25953367
   15 H                    1.0000     1.09558924    -1.30639186    -1.38996018
   16 H                    1.0000     1.45510230    -1.35336147     0.33135998
   17 H                    1.0000     1.36176467     1.05550941    -0.26151495
   18 H                    1.0000    -1.69943925     0.99713670     0.15959030
   19 H                    1.0000    -0.93975338     4.28572552     0.33731858
   20 H                    1.0000    -1.12243719    -2.50449543    -0.23013142

      Atomic Mass 
      ----------- 

      O                 15.994910
      C                 12.000000
      N                 14.003070
      H                  1.007825


 Effective nuclear repulsion energy (a.u.)     519.3950448682

            Nuclear Dipole moment (a.u.) 
            ----------------------------
        X                 Y               Z
 ---------------- ---------------- ----------------
    -0.0000000000    -0.0000000000    -0.0000000000



                                Z-matrix (autoz)
                                -------- 

 Units are Angstrom for bonds and degrees for angles

      Type          Name      I     J     K     L     M      Value
      ----------- --------  ----- ----- ----- ----- ----- ----------
    1 Stretch                  1     2                       1.32169
    2 Stretch                  1    19                       0.96614
    3 Stretch                  2     3                       1.19397
    4 Stretch                  2     4                       1.48941
    5 Stretch                  4     5                       1.33724
    6 Stretch                  4    17                       1.08060
    7 Stretch                  5     6                       1.43149
    8 Stretch                  5    18                       1.07986
    9 Stretch                  6     7                       1.24821
   10 Stretch                  6     8                       1.52102
   11 Stretch                  7    20                       1.07510
   12 Stretch                  8     9                       1.44645
   13 Stretch                  8    15                       1.08966
   14 Stretch                  8    16                       1.08890
   15 Stretch                  9    10                       1.47295
   16 Stretch                  9    14                       1.00754
   17 Stretch                 10    11                       1.08621
   18 Stretch                 10    12                       1.08707
   19 Stretch                 10    13                       1.08430
   20 Bend                     1     2     3               126.30925
   21 Bend                     1     2     4               112.50623
   22 Bend                     2     1    19               108.80293
   23 Bend                     2     4     5               123.61470
   24 Bend                     2     4    17               113.20356
   25 Bend                     3     2     4               121.18452
   26 Bend                     4     5     6               121.26202
   27 Bend                     4     5    18               121.64057
   28 Bend                     5     4    17               123.18162
   29 Bend                     5     6     7               120.25891
   30 Bend                     5     6     8               127.26813
   31 Bend                     6     5    18               117.09698
   32 Bend                     6     7    20               100.01795
   33 Bend                     6     8     9               104.92316
   34 Bend                     6     8    15               108.70945
   35 Bend                     6     8    16               110.45052
   36 Bend                     7     6     8               112.46984
   37 Bend                     8     9    10               117.52545
   38 Bend                     8     9    14               111.72527
   39 Bend                     9     8    15               112.07547
   40 Bend                     9     8    16               112.92800
   41 Bend                     9    10    11               110.70135
   42 Bend                     9    10    12               111.24605
   43 Bend                     9    10    13               109.36203
   44 Bend                    10     9    14               111.42892
   45 Bend                    11    10    12               108.97065
   46 Bend                    11    10    13               108.40008
   47 Bend                    12    10    13               108.07911
   48 Bend                    15     8    16               107.69621
   49 Torsion                  1     2     4     5           0.44161
   50 Torsion                  1     2     4    17        -179.67932
   51 Torsion                  2     4     5     6         179.67110
   52 Torsion                  2     4     5    18          -0.08023
   53 Torsion                  3     2     1    19           0.03224
   54 Torsion                  3     2     4     5        -179.54011
   55 Torsion                  3     2     4    17           0.33896
   56 Torsion                  4     2     1    19        -179.94836
   57 Torsion                  4     5     6     7        -179.79299
   58 Torsion                  4     5     6     8          -0.48558
   59 Torsion                  5     6     7    20        -179.97382
   60 Torsion                  5     6     8     9         176.14994
   61 Torsion                  5     6     8    15         -63.79024
   62 Torsion                  5     6     8    16          54.16649
   63 Torsion                  6     5     4    17          -0.19610
   64 Torsion                  6     8     9    10        -110.11320
   65 Torsion                  6     8     9    14         119.25987
   66 Torsion                  7     6     5    18          -0.03080
   67 Torsion                  7     6     8     9          -4.49744
   68 Torsion                  7     6     8    15         115.56238
   69 Torsion                  7     6     8    16        -126.48090
   70 Torsion                  8     6     5    18         179.27661
   71 Torsion                  8     6     7    20           0.62263
   72 Torsion                  8     9    10    11         101.84749
   73 Torsion                  8     9    10    12         -19.47062
   74 Torsion                  8     9    10    13        -138.78155
   75 Torsion                 10     9     8    15         132.09150
   76 Torsion                 10     9     8    16          10.24107
   77 Torsion                 11    10     9    14        -127.38929
   78 Torsion                 12    10     9    14         111.29260
   79 Torsion                 13    10     9    14          -8.01834
   80 Torsion                 14     9     8    15           1.46457
   81 Torsion                 14     9     8    16        -120.38586
   82 Torsion                 17     4     5    18        -179.94743


            XYZ format geometry
            -------------------
    20
 geometry
 O                    -0.95172747     3.32279189     0.25956895
 C                     0.28097481     2.89743325     0.04421389
 O                     1.25858729     3.57743227    -0.04203572
 C                     0.35756294     1.41611458    -0.09054038
 C                    -0.70611776     0.60956928    -0.01132328
 C                    -0.57540216    -0.80864391    -0.15537428
 O                    -1.58153561    -1.54370901    -0.08192750
 C                     0.70070266    -1.59422558    -0.41600757
 N                     0.29687402    -2.98274354    -0.38188836
 C                     0.75451948    -3.79697062     0.75704734
 H                    -0.04336327    -3.92465027     1.48295285
 H                     1.61002001    -3.34088157     1.24880168
 H                     1.05366235    -4.77663294     0.40139514
 H                     0.47470286    -3.44453649    -1.25953367
 H                     1.09558924    -1.30639186    -1.38996018
 H                     1.45510230    -1.35336147     0.33135998
 H                     1.36176467     1.05550941    -0.26151495
 H                    -1.69943925     0.99713670     0.15959030
 H                    -0.93975338     4.28572552     0.33731858
 H                    -1.12243719    -2.50449543    -0.23013142

 ==============================================================================
                                internuclear distances
 ------------------------------------------------------------------------------
       center one      |      center two      | atomic units |  angstroms
 ------------------------------------------------------------------------------
    2 C                |   1 O                |     2.49763  |     1.32169
    3 O                |   2 C                |     2.25628  |     1.19397
    4 C                |   2 C                |     2.81457  |     1.48941
    5 C                |   4 C                |     2.52701  |     1.33724
    6 C                |   5 C                |     2.70513  |     1.43149
    7 O                |   6 C                |     2.35877  |     1.24821
    8 C                |   6 C                |     2.87432  |     1.52102
    9 N                |   8 C                |     2.73340  |     1.44645
   10 C                |   9 N                |     2.78347  |     1.47295
   11 H                |  10 C                |     2.05264  |     1.08621
   12 H                |  10 C                |     2.05426  |     1.08707
   13 H                |  10 C                |     2.04904  |     1.08430
   14 H                |   9 N                |     1.90397  |     1.00754
   15 H                |   8 C                |     2.05917  |     1.08966
   16 H                |   8 C                |     2.05771  |     1.08890
   17 H                |   4 C                |     2.04203  |     1.08060
   18 H                |   5 C                |     2.04065  |     1.07986
   19 H                |   1 O                |     1.82574  |     0.96614
 ------------------------------------------------------------------------------
                         number of included internuclear distances:         18
 ==============================================================================



 ==============================================================================
                                 internuclear angles
 ------------------------------------------------------------------------------
        center 1       |       center 2       |       center 3       |  degrees
 ------------------------------------------------------------------------------
    2 C                |   1 O                |  19 H                |   108.80
    1 O                |   2 C                |   3 O                |   126.31
    1 O                |   2 C                |   4 C                |   112.51
    3 O                |   2 C                |   4 C                |   121.18
    2 C                |   4 C                |   5 C                |   123.61
    2 C                |   4 C                |  17 H                |   113.20
    5 C                |   4 C                |  17 H                |   123.18
    4 C                |   5 C                |   6 C                |   121.26
    4 C                |   5 C                |  18 H                |   121.64
    6 C                |   5 C                |  18 H                |   117.10
    5 C                |   6 C                |   7 O                |   120.26
    5 C                |   6 C                |   8 C                |   127.27
    7 O                |   6 C                |   8 C                |   112.47
    6 C                |   8 C                |   9 N                |   104.92
    6 C                |   8 C                |  15 H                |   108.71
    6 C                |   8 C                |  16 H                |   110.45
    9 N                |   8 C                |  15 H                |   112.08
    9 N                |   8 C                |  16 H                |   112.93
   15 H                |   8 C                |  16 H                |   107.70
    8 C                |   9 N                |  10 C                |   117.53
    8 C                |   9 N                |  14 H                |   111.73
   10 C                |   9 N                |  14 H                |   111.43
    9 N                |  10 C                |  11 H                |   110.70
    9 N                |  10 C                |  12 H                |   111.25
    9 N                |  10 C                |  13 H                |   109.36
   11 H                |  10 C                |  12 H                |   108.97
   11 H                |  10 C                |  13 H                |   108.40
   12 H                |  10 C                |  13 H                |   108.08
 ------------------------------------------------------------------------------
                            number of included internuclear angles:         28
 ==============================================================================





 Summary of "ao basis" -> "" (cartesian)
 ------------------------------------------------------------------------------
       Tag                 Description            Shells   Functions and Types
 ---------------- ------------------------------  ------  ---------------------
 *                           sto-3g                   on all atoms 


                              TS : STO-3G 2 freq img
                              ----------------------


                   NWChem Nuclear Hessian and Frequency Analysis
                   ---------------------------------------------



                              NWChem Analytic Hessian
                              -----------------------

 restr:                     0
                      Basis "ao basis" -> "ao basis" (cartesian)
                      -----
  O (Oxygen)
  ----------
            Exponent  Coefficients 
       -------------- ---------------------------------------------------------
  1 S  1.30709320E+02  0.154329
  1 S  2.38088610E+01  0.535328
  1 S  6.44360830E+00  0.444635

  2 S  5.03315130E+00 -0.099967
  2 S  1.16959610E+00  0.399513
  2 S  3.80389000E-01  0.700115

  3 P  5.03315130E+00  0.155916
  3 P  1.16959610E+00  0.607684
  3 P  3.80389000E-01  0.391957

  C (Carbon)
  ----------
            Exponent  Coefficients 
       -------------- ---------------------------------------------------------
  1 S  7.16168370E+01  0.154329
  1 S  1.30450960E+01  0.535328
  1 S  3.53051220E+00  0.444635

  2 S  2.94124940E+00 -0.099967
  2 S  6.83483100E-01  0.399513
  2 S  2.22289900E-01  0.700115

  3 P  2.94124940E+00  0.155916
  3 P  6.83483100E-01  0.607684
  3 P  2.22289900E-01  0.391957

  N (Nitrogen)
  ------------
            Exponent  Coefficients 
       -------------- ---------------------------------------------------------
  1 S  9.91061690E+01  0.154329
  1 S  1.80523120E+01  0.535328
  1 S  4.88566020E+00  0.444635

  2 S  3.78045590E+00 -0.099967
  2 S  8.78496600E-01  0.399513
  2 S  2.85714400E-01  0.700115

  3 P  3.78045590E+00  0.155916
  3 P  8.78496600E-01  0.607684
  3 P  2.85714400E-01  0.391957

  H (Hydrogen)
  ------------
            Exponent  Coefficients 
       -------------- ---------------------------------------------------------
  1 S  3.42525091E+00  0.154329
  1 S  6.23913730E-01  0.535328
  1 S  1.68855400E-01  0.444635



 Summary of "ao basis" -> "ao basis" (cartesian)
 ------------------------------------------------------------------------------
       Tag                 Description            Shells   Functions and Types
 ---------------- ------------------------------  ------  ---------------------
 O                           sto-3g                  3        5   2s1p
 C                           sto-3g                  3        5   2s1p
 N                           sto-3g                  3        5   2s1p
 H                           sto-3g                  1        1   1s


                                 NWChem SCF Module
                                 -----------------


                              TS : STO-3G 2 freq img



  ao basis        = "ao basis"
  functions       =    60
  atoms           =    20
  closed shells   =    38
  open shells     =     0
  charge          =   1.00
  wavefunction    = RHF 
  input vectors   = atomic
  output vectors  = ./img.movecs
  use symmetry    = F
  symmetry adapt  = F


 Summary of "ao basis" -> "ao basis" (cartesian)
 ------------------------------------------------------------------------------
       Tag                 Description            Shells   Functions and Types
 ---------------- ------------------------------  ------  ---------------------
 O                           sto-3g                  3        5   2s1p
 C                           sto-3g                  3        5   2s1p
 N                           sto-3g                  3        5   2s1p
 H                           sto-3g                  1        1   1s



 Forming initial guess at       0.1s


      Superposition of Atomic Density Guess
      -------------------------------------

 Sum of atomic energies:        -502.68486900

 Renormalizing density from      77.00 to     76

      Non-variational initial energy
      ------------------------------

 Total energy =    -501.170932
 1-e energy   =   -1705.051477
 2-e energy   =     684.485501
 HOMO         =      -0.358291
 LUMO         =      -0.135856


 Starting SCF solution at       0.4s



 ----------------------------------------------
         Quadratically convergent ROHF

 Convergence threshold     :          1.000E-06
 Maximum no. of iterations :           30
 Final Fock-matrix accuracy:          1.000E-08
 ----------------------------------------------


 Integral file          = ./img.aoints.0
 Record size in doubles =    65536    No. of integs per rec  =    43688
 Max. records in memory =       54    Max. records in file   = ********
 No. of bits per label  =        8    No. of bits per value  =       64


 #quartets = 1.848D+05 #integrals = 9.323D+05 #direct =  0.0% #cached =100.0%


              iter       energy          gnorm     gmax       time
             ----- ------------------- --------- --------- --------
                 1     -505.0421472212  1.65D+00  4.37D-01      1.4
                 2     -505.2668003126  4.70D-01  9.80D-02      1.4
                 3     -505.2926473202  2.07D-02  6.85D-03      1.5
                 4     -505.2927411506  2.11D-04  6.58D-05      1.5
                 5     -505.2927411595  5.64D-08  2.64D-08      1.6


       Final RHF  results 
       ------------------ 

         Total SCF energy =   -505.292741159476
      One-electron energy =  -1709.502611385752
      Two-electron energy =    684.814825358122
 Nuclear repulsion energy =    519.395044868154

        Time for solution =      1.2s


             Final eigenvalues
             -----------------

              1      
    1  -20.6167
    2  -20.4576
    3  -20.4323
    4  -15.5829
    5  -11.4191
    6  -11.3450
    7  -11.3275
    8  -11.2822
    9  -11.2603
   10  -11.2498
   11   -1.6491
   12   -1.5505
   13   -1.4434
   14   -1.3949
   15   -1.2559
   16   -1.1628
   17   -1.0855
   18   -1.0342
   19   -0.9455
   20   -0.9179
   21   -0.8963
   22   -0.8618
   23   -0.8278
   24   -0.7897
   25   -0.7798
   26   -0.7461
   27   -0.7361
   28   -0.7335
   29   -0.7110
   30   -0.7097
   31   -0.6874
   32   -0.6845
   33   -0.6530
   34   -0.6099
   35   -0.5583
   36   -0.5423
   37   -0.5053
   38   -0.4908
   39   -0.0605
   40    0.1213
   41    0.2508
   42    0.3347
   43    0.3529
   44    0.3801
   45    0.3982
   46    0.4129
   47    0.4272
   48    0.4472

                       ROHF Final Molecular Orbital Analysis
                       -------------------------------------

 Vector   13  Occ=2.000000D+00  E=-1.443420D+00
              MO Center=  1.6D-01,  3.4D+00,  1.0D-01, r^2= 1.4D+00
   Bfn.  Coefficient  Atom+Function         Bfn.  Coefficient  Atom+Function  
  ----- ------------  ---------------      ----- ------------  ---------------
     2      0.596501   1 O  s                12     -0.577036   3 O  s         
     8     -0.221591   2 C  px                1     -0.166503   1 O  s         
    11      0.165793   3 O  s         

 Vector   14  Occ=2.000000D+00  E=-1.394867D+00
              MO Center=  4.0D-01, -2.7D+00, -3.2D-01, r^2= 1.3D+00
   Bfn.  Coefficient  Atom+Function         Bfn.  Coefficient  Atom+Function  
  ----- ------------  ---------------      ----- ------------  ---------------
    42      0.651540   9 N  s                37      0.273554   8 C  s         
    41     -0.196007   9 N  s                47      0.180990  10 C  s         
    32     -0.179892   7 O  s         

 Vector   15  Occ=2.000000D+00  E=-1.255913D+00
              MO Center= -2.4D-01,  3.5D-01, -9.3D-02, r^2= 2.3D+00
   Bfn.  Coefficient  Atom+Function         Bfn.  Coefficient  Atom+Function  
  ----- ------------  ---------------      ----- ------------  ---------------
    22      0.418025   5 C  s                17      0.354061   4 C  s         
    27      0.284399   6 C  s                32     -0.192627   7 O  s         
    21     -0.164421   5 C  s         

 Vector   16  Occ=2.000000D+00  E=-1.162765D+00
              MO Center=  3.4D-01, -1.4D+00, -1.2D-01, r^2= 4.7D+00
   Bfn.  Coefficient  Atom+Function         Bfn.  Coefficient  Atom+Function  
  ----- ------------  ---------------      ----- ------------  ---------------
    37      0.437897   8 C  s                47     -0.286032  10 C  s         
    17     -0.251530   4 C  s                27      0.207390   6 C  s         
    42     -0.185396   9 N  s                32     -0.177587   7 O  s         
    44      0.165666   9 N  py               36     -0.150117   8 C  s         

 Vector   17  Occ=2.000000D+00  E=-1.085475D+00
              MO Center= -3.4D-02, -6.9D-01,  1.2D-01, r^2= 7.3D+00
   Bfn.  Coefficient  Atom+Function         Bfn.  Coefficient  Atom+Function  
  ----- ------------  ---------------      ----- ------------  ---------------
    47     -0.336015  10 C  s                17      0.318000   4 C  s         
    27     -0.309097   6 C  s                34     -0.199847   7 O  py        
    24      0.166252   5 C  py                7      0.164962   2 C  s         
     9     -0.151696   2 C  py        

 Vector   18  Occ=2.000000D+00  E=-1.034162D+00
              MO Center=  4.1D-01, -2.2D+00,  1.5D-01, r^2= 5.9D+00
   Bfn.  Coefficient  Atom+Function         Bfn.  Coefficient  Atom+Function  
  ----- ------------  ---------------      ----- ------------  ---------------
    47      0.402270  10 C  s                42     -0.335402   9 N  s         
    37      0.210780   8 C  s                45      0.203309   9 N  pz        
    22     -0.190214   5 C  s                54     -0.189998  14 H  s         

 Vector   19  Occ=2.000000D+00  E=-9.454680D-01
              MO Center= -6.3D-01,  2.5D-01, -4.9D-02, r^2= 6.5D+00
   Bfn.  Coefficient  Atom+Function         Bfn.  Coefficient  Atom+Function  
  ----- ------------  ---------------      ----- ------------  ---------------
    34      0.413316   7 O  py                7      0.308755   2 C  s         
    60     -0.264305  20 H  s                19      0.246835   4 C  py        
    22     -0.211719   5 C  s                27      0.207524   6 C  s         
    12     -0.201560   3 O  s                28     -0.196574   6 C  px        
     4     -0.175219   1 O  py        

 Vector   20  Occ=2.000000D+00  E=-9.179146D-01
              MO Center= -3.8D-02, -1.5D+00, -2.6D-01, r^2= 2.9D+00
   Bfn.  Coefficient  Atom+Function         Bfn.  Coefficient  Atom+Function  
  ----- ------------  ---------------      ----- ------------  ---------------
    32      0.377144   7 O  s                38      0.339469   8 C  px        
    33     -0.325364   7 O  px               27     -0.319290   6 C  s         
    37      0.241075   8 C  s                43      0.219029   9 N  px        
    56      0.198837  16 H  s                55      0.188273  15 H  s         
    29      0.160864   6 C  py        

 Vector   21  Occ=2.000000D+00  E=-8.962780D-01
              MO Center= -1.3D-01,  1.2D+00, -4.0D-02, r^2= 5.5D+00
   Bfn.  Coefficient  Atom+Function         Bfn.  Coefficient  Atom+Function  
  ----- ------------  ---------------      ----- ------------  ---------------
    57      0.276846  17 H  s                18      0.261006   4 C  px        
     4      0.245566   1 O  py               17      0.243750   4 C  s         
    22     -0.219381   5 C  s                 7     -0.208840   2 C  s         
    59      0.205307  19 H  s                58     -0.185257  18 H  s         
    23      0.163574   5 C  px                3     -0.161263   1 O  px        

 Vector   22  Occ=2.000000D+00  E=-8.618483D-01
              MO Center=  3.1D-01, -1.9D+00, -3.0D-01, r^2= 5.1D+00
   Bfn.  Coefficient  Atom+Function         Bfn.  Coefficient  Atom+Function  
  ----- ------------  ---------------      ----- ------------  ---------------
    40      0.306994   8 C  pz               45      0.287265   9 N  pz        
    55     -0.226280  15 H  s                39     -0.217557   8 C  py        
    44      0.212672   9 N  py               54     -0.204570  14 H  s         
    49      0.199868  10 C  py               30      0.157952   6 C  pz        
    35      0.150784   7 O  pz               53     -0.150240  13 H  s         

 Vector   23  Occ=2.000000D+00  E=-8.277964D-01
              MO Center= -3.2D-01, -3.0D-01, -1.0D-02, r^2= 6.2D+00
   Bfn.  Coefficient  Atom+Function         Bfn.  Coefficient  Atom+Function  
  ----- ------------  ---------------      ----- ------------  ---------------
    29     -0.282165   6 C  py               24      0.268855   5 C  py        
    33      0.241680   7 O  px               40     -0.218052   8 C  pz        
     7     -0.189322   2 C  s                 3     -0.182780   1 O  px        
    44      0.168448   9 N  py               28     -0.161615   6 C  px        
    32     -0.161380   7 O  s                12      0.158309   3 O  s         

 Vector   24  Occ=2.000000D+00  E=-7.896537D-01
              MO Center= -1.7D-01,  6.7D-01, -1.6D-02, r^2= 6.4D+00
   Bfn.  Coefficient  Atom+Function         Bfn.  Coefficient  Atom+Function  
  ----- ------------  ---------------      ----- ------------  ---------------
    23      0.291702   5 C  px               19     -0.262679   4 C  py        
    29     -0.241682   6 C  py               14      0.239847   3 O  py        
    18     -0.208396   4 C  px                9      0.205503   2 C  py        
    24      0.202509   5 C  py                8     -0.196405   2 C  px        
    33      0.191064   7 O  px                3      0.173017   1 O  px        

 Vector   25  Occ=2.000000D+00  E=-7.797884D-01
              MO Center=  2.0D-02, -6.0D-01, -3.7D-02, r^2= 7.5D+00
   Bfn.  Coefficient  Atom+Function         Bfn.  Coefficient  Atom+Function  
  ----- ------------  ---------------      ----- ------------  ---------------
    44      0.286867   9 N  py               35     -0.228629   7 O  pz        
    39     -0.227968   8 C  py                3      0.212265   1 O  px        
     9      0.198596   2 C  py               56     -0.192993  16 H  s         
    30     -0.181832   6 C  pz               40     -0.179082   8 C  pz        
    33     -0.167016   7 O  px               19     -0.156883   4 C  py        

 Vector   26  Occ=2.000000D+00  E=-7.461469D-01
              MO Center=  2.0D-01, -1.8D+00,  1.5D-01, r^2= 7.2D+00
   Bfn.  Coefficient  Atom+Function         Bfn.  Coefficient  Atom+Function  
  ----- ------------  ---------------      ----- ------------  ---------------
    35      0.338641   7 O  pz               45     -0.312670   9 N  pz        
    48      0.300278  10 C  px               30      0.240822   6 C  pz        
    44      0.228976   9 N  py               52      0.227040  12 H  s         
    12     -0.197896   3 O  s                50      0.178358  10 C  pz        
    39     -0.162926   8 C  py        

 Vector   27  Occ=2.000000D+00  E=-7.361003D-01
              MO Center=  1.9D-01, -1.2D+00,  3.2D-01, r^2= 9.9D+00
   Bfn.  Coefficient  Atom+Function         Bfn.  Coefficient  Atom+Function  
  ----- ------------  ---------------      ----- ------------  ---------------
    48      0.360636  10 C  px               51     -0.282167  11 H  s         
    35     -0.257407   7 O  pz               13      0.220024   3 O  px        
    52      0.213117  12 H  s                12      0.201593   3 O  s         
    43      0.192743   9 N  px                9     -0.183129   2 C  py        
    30     -0.172089   6 C  pz                3     -0.166785   1 O  px        

 Vector   28  Occ=2.000000D+00  E=-7.335484D-01
              MO Center=  1.0D-01,  1.3D+00,  1.3D-01, r^2= 1.0D+01
   Bfn.  Coefficient  Atom+Function         Bfn.  Coefficient  Atom+Function  
  ----- ------------  ---------------      ----- ------------  ---------------
    12      0.422233   3 O  s                13      0.360657   3 O  px        
     4     -0.311150   1 O  py               35      0.288142   7 O  pz        
     2      0.230544   1 O  s                 7     -0.182868   2 C  s         
    51      0.173233  11 H  s                59     -0.174040  19 H  s         
     9     -0.169317   2 C  py               50      0.169780  10 C  pz        

 Vector   29  Occ=2.000000D+00  E=-7.109742D-01
              MO Center= -1.7D-02,  1.6D+00,  1.3D-02, r^2= 5.4D+00
   Bfn.  Coefficient  Atom+Function         Bfn.  Coefficient  Atom+Function  
  ----- ------------  ---------------      ----- ------------  ---------------
     5      0.352143   1 O  pz               10      0.298277   2 C  pz        
    18     -0.266475   4 C  px               57     -0.263879  17 H  s         
    23      0.228074   5 C  px               33     -0.227848   7 O  px        
    15      0.216549   3 O  pz                8      0.182763   2 C  px        
    14     -0.170596   3 O  py               58     -0.169021  18 H  s         

 Vector   30  Occ=2.000000D+00  E=-7.097109D-01
              MO Center= -1.2D-01,  1.8D+00,  6.9D-02, r^2= 5.7D+00
   Bfn.  Coefficient  Atom+Function         Bfn.  Coefficient  Atom+Function  
  ----- ------------  ---------------      ----- ------------  ---------------
    10      0.417350   2 C  pz                5      0.386070   1 O  pz        
    15      0.275608   3 O  pz               18      0.237120   4 C  px        
    35     -0.213904   7 O  pz               57      0.203697  17 H  s         
    33      0.185220   7 O  px               23     -0.172718   5 C  px        

 Vector   31  Occ=2.000000D+00  E=-6.873950D-01
              MO Center=  3.8D-01, -2.5D+00,  8.4D-02, r^2= 4.1D+00
   Bfn.  Coefficient  Atom+Function         Bfn.  Coefficient  Atom+Function  
  ----- ------------  ---------------      ----- ------------  ---------------
    50      0.370254  10 C  pz               45     -0.329934   9 N  pz        
    35     -0.317893   7 O  pz               40      0.288518   8 C  pz        
    56      0.269384  16 H  s                51      0.247341  11 H  s         
    54      0.241707  14 H  s                55     -0.213524  15 H  s         
    53     -0.176262  13 H  s         

 Vector   32  Occ=2.000000D+00  E=-6.845488D-01
              MO Center=  4.6D-01, -2.9D+00,  2.3D-01, r^2= 4.4D+00
   Bfn.  Coefficient  Atom+Function         Bfn.  Coefficient  Atom+Function  
  ----- ------------  ---------------      ----- ------------  ---------------
    49      0.435895  10 C  py               53     -0.352777  13 H  s         
    33      0.282510   7 O  px               52      0.262271  12 H  s         
    40     -0.232948   8 C  pz               55      0.227669  15 H  s         
    44     -0.218769   9 N  py               35      0.179222   7 O  pz        

 Vector   33  Occ=2.000000D+00  E=-6.530099D-01
              MO Center= -3.5D-01, -1.1D+00, -5.6D-02, r^2= 5.0D+00
   Bfn.  Coefficient  Atom+Function         Bfn.  Coefficient  Atom+Function  
  ----- ------------  ---------------      ----- ------------  ---------------
    33      0.397075   7 O  px               38      0.301529   8 C  px        
    28     -0.274934   6 C  px               58     -0.241915  18 H  s         
    29      0.224127   6 C  py               23      0.221984   5 C  px        
    39     -0.220984   8 C  py               24     -0.208729   5 C  py        
    32     -0.201577   7 O  s                49     -0.197653  10 C  py        

 Vector   34  Occ=2.000000D+00  E=-6.099264D-01
              MO Center= -1.4D-01,  3.1D+00,  1.3D-01, r^2= 2.5D+00
   Bfn.  Coefficient  Atom+Function         Bfn.  Coefficient  Atom+Function  
  ----- ------------  ---------------      ----- ------------  ---------------
     4     -0.432909   1 O  py                3     -0.408535   1 O  px        
     2      0.397531   1 O  s                14     -0.336838   3 O  py        
    13     -0.319787   3 O  px               59     -0.268807  19 H  s         
    19     -0.252097   4 C  py               12     -0.244797   3 O  s         
     8      0.236887   2 C  px                9      0.175719   2 C  py        

 Vector   35  Occ=2.000000D+00  E=-5.583245D-01
              MO Center=  8.1D-02, -2.8D+00, -6.6D-02, r^2= 2.4D+00
   Bfn.  Coefficient  Atom+Function         Bfn.  Coefficient  Atom+Function  
  ----- ------------  ---------------      ----- ------------  ---------------
    43      0.778539   9 N  px               34     -0.323424   7 O  py        
    51      0.237896  11 H  s                42     -0.231263   9 N  s         
    48     -0.228550  10 C  px               52     -0.198879  12 H  s         

 Vector   36  Occ=2.000000D+00  E=-5.423457D-01
              MO Center= -5.2D-01,  1.3D+00,  1.9D-02, r^2= 3.0D+00
   Bfn.  Coefficient  Atom+Function         Bfn.  Coefficient  Atom+Function  
  ----- ------------  ---------------      ----- ------------  ---------------
    25      0.542638   5 C  pz                5     -0.478148   1 O  pz        
    20      0.473032   4 C  pz               35     -0.316912   7 O  pz        

 Vector   37  Occ=2.000000D+00  E=-5.052693D-01
              MO Center=  7.7D-01,  3.3D+00,  4.9D-03, r^2= 1.8D+00
   Bfn.  Coefficient  Atom+Function         Bfn.  Coefficient  Atom+Function  
  ----- ------------  ---------------      ----- ------------  ---------------
    14      0.703492   3 O  py               13     -0.496194   3 O  px        
     3     -0.397345   1 O  px               19      0.263749   4 C  py        
    17      0.169459   4 C  s         

 Vector   38  Occ=2.000000D+00  E=-4.907961D-01
              MO Center=  1.1D-01,  2.9D+00,  7.0D-02, r^2= 3.0D+00
   Bfn.  Coefficient  Atom+Function         Bfn.  Coefficient  Atom+Function  
  ----- ------------  ---------------      ----- ------------  ---------------
     5      0.609811   1 O  pz               15     -0.601120   3 O  pz        
    25      0.296693   5 C  pz               10     -0.279329   2 C  pz        
    20      0.167475   4 C  pz               35     -0.158488   7 O  pz        

 Vector   39  Occ=0.000000D+00  E=-6.049613D-02
              MO Center= -3.1D-01,  1.5D-01, -1.1D-01, r^2= 3.6D+00
   Bfn.  Coefficient  Atom+Function         Bfn.  Coefficient  Atom+Function  
  ----- ------------  ---------------      ----- ------------  ---------------
    30      0.641016   6 C  pz               20     -0.566563   4 C  pz        
    35     -0.483798   7 O  pz               15      0.263733   3 O  pz        
    25      0.226450   5 C  pz        

 Vector   40  Occ=0.000000D+00  E= 1.213393D-01
              MO Center= -1.3D-01,  1.1D+00, -5.9D-02, r^2= 4.5D+00
   Bfn.  Coefficient  Atom+Function         Bfn.  Coefficient  Atom+Function  
  ----- ------------  ---------------      ----- ------------  ---------------
    25      0.604471   5 C  pz               30     -0.570923   6 C  pz        
    15      0.450678   3 O  pz               10     -0.446846   2 C  pz        
    35      0.300253   7 O  pz               20     -0.290284   4 C  pz        
     5      0.201171   1 O  pz               55     -0.165372  15 H  s         

 Vector   41  Occ=0.000000D+00  E= 2.507631D-01
              MO Center=  2.6D-01,  2.2D+00, -1.6D-02, r^2= 2.7D+00
   Bfn.  Coefficient  Atom+Function         Bfn.  Coefficient  Atom+Function  
  ----- ------------  ---------------      ----- ------------  ---------------
    10      0.719945   2 C  pz               20     -0.608740   4 C  pz        
    15     -0.503210   3 O  pz               25      0.470101   5 C  pz        
     5     -0.259782   1 O  pz               30     -0.230053   6 C  pz        

 Vector   42  Occ=0.000000D+00  E= 3.346866D-01
              MO Center=  3.0D-01, -2.1D+00, -1.6D-01, r^2= 3.2D+00
   Bfn.  Coefficient  Atom+Function         Bfn.  Coefficient  Atom+Function  
  ----- ------------  ---------------      ----- ------------  ---------------
    42      0.953555   9 N  s                38      0.548388   8 C  px        
    39      0.443678   8 C  py               50      0.394577  10 C  pz        
    54     -0.390143  14 H  s                28      0.370804   6 C  px        
    37     -0.366799   8 C  s                22     -0.343980   5 C  s         
    27      0.313396   6 C  s                48      0.284854  10 C  px        

 Vector   43  Occ=0.000000D+00  E= 3.528770D-01
              MO Center= -2.8D-01, -1.7D+00, -1.9D-01, r^2= 4.0D+00
   Bfn.  Coefficient  Atom+Function         Bfn.  Coefficient  Atom+Function  
  ----- ------------  ---------------      ----- ------------  ---------------
    60      0.759807  20 H  s                39      0.503511   8 C  py        
    28     -0.431693   6 C  px               32     -0.415439   7 O  s         
    43      0.359214   9 N  px               58     -0.300948  18 H  s         
    38     -0.284790   8 C  px               34      0.281138   7 O  py        
    54      0.263500  14 H  s                29      0.259019   6 C  py        

 Vector   44  Occ=0.000000D+00  E= 3.800547D-01
              MO Center=  1.5D-01, -1.5D+00, -2.0D-01, r^2= 4.3D+00
   Bfn.  Coefficient  Atom+Function         Bfn.  Coefficient  Atom+Function  
  ----- ------------  ---------------      ----- ------------  ---------------
    27      0.789724   6 C  s                40     -0.466884   8 C  pz        
    60      0.436326  20 H  s                54     -0.412590  14 H  s         
    39     -0.383968   8 C  py               55     -0.371773  15 H  s         
    32     -0.368341   7 O  s                45     -0.366224   9 N  pz        
    50     -0.366901  10 C  pz               24      0.357227   5 C  py        

 Vector   45  Occ=0.000000D+00  E= 3.981744D-01
              MO Center=  4.1D-01, -1.8D+00, -5.6D-01, r^2= 3.4D+00
   Bfn.  Coefficient  Atom+Function         Bfn.  Coefficient  Atom+Function  
  ----- ------------  ---------------      ----- ------------  ---------------
    27      0.724789   6 C  s                54      0.586253  14 H  s         
    39     -0.549520   8 C  py               55      0.498895  15 H  s         
    45      0.457013   9 N  pz               40      0.413510   8 C  pz        
    38      0.380157   8 C  px               42     -0.371180   9 N  s         
    37     -0.316634   8 C  s                56     -0.306569  16 H  s         

 Vector   46  Occ=0.000000D+00  E= 4.128619D-01
              MO Center= -5.2D-01,  4.4D-01,  3.6D-02, r^2= 8.4D+00
   Bfn.  Coefficient  Atom+Function         Bfn.  Coefficient  Atom+Function  
  ----- ------------  ---------------      ----- ------------  ---------------
    58      0.585027  18 H  s                 7      0.566530   2 C  s         
    60      0.485020  20 H  s                59      0.474942  19 H  s         
    19     -0.465048   4 C  py               42     -0.445008   9 N  s         
     2     -0.418454   1 O  s                34      0.369704   7 O  py        
    22     -0.334692   5 C  s                23      0.335213   5 C  px        

 Vector   47  Occ=0.000000D+00  E= 4.271996D-01
              MO Center=  8.3D-02,  1.5D+00, -1.4D-03, r^2= 6.7D+00
   Bfn.  Coefficient  Atom+Function         Bfn.  Coefficient  Atom+Function  
  ----- ------------  ---------------      ----- ------------  ---------------
    57      0.806096  17 H  s                17     -0.657854   4 C  s         
    59      0.590937  19 H  s                 2     -0.540587   1 O  s         
    18     -0.440322   4 C  px               60     -0.357849  20 H  s         
     4     -0.302627   1 O  py                8     -0.299672   2 C  px        
    58     -0.297406  18 H  s                37     -0.274989   8 C  s         

 Vector   48  Occ=0.000000D+00  E= 4.471682D-01
              MO Center=  2.9D-01, -2.1D+00,  1.2D-01, r^2= 7.7D+00
   Bfn.  Coefficient  Atom+Function         Bfn.  Coefficient  Atom+Function  
  ----- ------------  ---------------      ----- ------------  ---------------
    49      0.653237  10 C  py               44      0.642359   9 N  py        
    53      0.476697  13 H  s                59     -0.347955  19 H  s         
    37     -0.334167   8 C  s                54      0.299172  14 H  s         
     2      0.296380   1 O  s                40     -0.289213   8 C  pz        
    47      0.283476  10 C  s                60     -0.283842  20 H  s         

 Vector   49  Occ=0.000000D+00  E= 5.046460D-01
              MO Center=  8.8D-01, -1.1D+00, -2.1D-01, r^2= 4.7D+00
   Bfn.  Coefficient  Atom+Function         Bfn.  Coefficient  Atom+Function  
  ----- ------------  ---------------      ----- ------------  ---------------
    37      1.229243   8 C  s                56     -0.851814  16 H  s         
    55     -0.719623  15 H  s                38      0.464885   8 C  px        
    47      0.357078  10 C  s                42     -0.337268   9 N  s         
    59      0.295418  19 H  s                51     -0.293367  11 H  s         
    17      0.223992   4 C  s                 4     -0.218494   1 O  py        


 center of mass
 --------------
 x =  -0.04214584 y =   0.18579244 z =  -0.01069989

 moments of inertia (a.u.)
 ------------------
        3556.631021564207          -0.000000000000          -0.000000000000
          -0.000000000000         503.115807536409           0.000000000000
          -0.000000000000           0.000000000000        3913.420203974087

  Mulliken analysis of the total density
  --------------------------------------

    Atom       Charge   Shell Charges
 -----------   ------   -------------------------------------------------------
    1 O    8     8.30   2.00  1.80  4.50
    2 C    6     5.66   1.99  1.03  2.64
    3 O    8     8.22   2.00  1.86  4.36
    4 C    6     5.98   1.99  1.18  2.81
    5 C    6     6.09   1.99  1.11  2.98
    6 C    6     5.69   1.99  1.15  2.55
    7 O    8     8.20   2.00  1.83  4.37
    8 C    6     6.05   1.99  1.17  2.89
    9 N    7     7.36   1.99  1.52  3.85
   10 C    6     6.09   1.99  1.18  2.92
   11 H    1     0.90   0.90
   12 H    1     0.91   0.91
   13 H    1     0.89   0.89
   14 H    1     0.76   0.76
   15 H    1     0.87   0.87
   16 H    1     0.87   0.87
   17 H    1     0.88   0.88
   18 H    1     0.86   0.86
   19 H    1     0.74   0.74
   20 H    1     0.67   0.67

       Multipole analysis of the density wrt the origin
       ------------------------------------------------

     L   x y z        total         open         nuclear
     -   - - -        -----         ----         -------
     0   0 0 0      1.000000      0.000000     77.000000

     1   1 0 0      0.277870      0.000000     -0.000000
     1   0 1 0     -2.149988      0.000000     -0.000000
     1   0 0 1     -0.396730      0.000000     -0.000000

     2   2 0 0    -39.859004      0.000000    240.186058
     2   1 1 0     -6.223875      0.000000    -30.200130
     2   1 0 1     -0.089385      0.000000      0.110628
     2   0 2 0    -14.171207      0.000000   1906.564347
     2   0 1 1      2.412401      0.000000     -7.756829
     2   0 0 2    -36.827167      0.000000     50.423182


 Parallel integral file used      22 records with       0 large values


 HESSIAN: the one electron contributions are done in       0.3s


 HESSIAN: 2-el 1st deriv. term done in                     1.6s


 HESSIAN: 2-el 2nd deriv. term done in                     4.5s

  stpr_wrt_fd_from_sq: overwrite of existing file:./img.hess
 stpr_wrt_fd_dipole: overwrite of existing file./img.fd_ddipole

 HESSIAN: the two electron contributions are done in       6.1s

                                NWChem CPHF Module
                                ------------------


  scftype          =     RHF 
  nclosed          =       38
  nopen            =        0
  variables        =      836
  # of vectors     =       60
  tolerance        = 0.10D-03
  level shift      = 0.00D+00
  max iterations   =       50
  max subspace     =      600


 Integral file          = ./img.aoints.0
 Record size in doubles =    65536    No. of integs per rec  =    43688
 Max. records in memory =       54    Max. records in file   = ********
 No. of bits per label  =        8    No. of bits per value  =       64


 #quartets = 1.848D+05 #integrals = 9.223D+05 #direct =  0.0% #cached =100.0%

 SCF residual:    1.5321333149301644E-006


Iterative solution of linear equations
  No. of variables      836
  No. of equations       60
  Maximum subspace      600
        Iterations       50
       Convergence  1.0D-04
        Start time     11.2


   iter   nsub   residual    time
   ----  ------  --------  ---------
     1     60    2.13D-01      12.6
     2    120    4.50D-02      14.1
     3    180    3.05D-03      15.6
     4    240    4.57D-04      17.2
     5    300    7.38D-05      18.9

 Parallel integral file used      22 records with       0 large values

 HESSIAN: the CPHF contributions are done
  stpr_wrt_fd_from_sq: overwrite of existing file:./img.hess
 stpr_wrt_fd_dipole: overwrite of existing file./img.fd_ddipole

 Derivative Dipole

  
  
 X vector of derivative dipole (au) [debye/angstrom]
 d_dipole_x/<atom=   1,x> =    -0.7760     [   -3.7275]
 d_dipole_x/<atom=   1,y> =     0.3171     [    1.5232]
 d_dipole_x/<atom=   1,z> =     0.0810     [    0.3889]
 d_dipole_x/<atom=   2,x> =     0.9217     [    4.4271]
 d_dipole_x/<atom=   2,y> =    -0.2036     [   -0.9781]
 d_dipole_x/<atom=   2,z> =    -0.0976     [   -0.4686]
 d_dipole_x/<atom=   3,x> =    -0.3425     [   -1.6453]
 d_dipole_x/<atom=   3,y> =    -0.0622     [   -0.2988]
 d_dipole_x/<atom=   3,z> =     0.0085     [    0.0407]
 d_dipole_x/<atom=   4,x> =     0.2233     [    1.0724]
 d_dipole_x/<atom=   4,y> =     0.3080     [    1.4793]
 d_dipole_x/<atom=   4,z> =     0.0118     [    0.0568]
 d_dipole_x/<atom=   5,x> =    -0.4221     [   -2.0275]
 d_dipole_x/<atom=   5,y> =    -0.6303     [   -3.0272]
 d_dipole_x/<atom=   5,z> =    -0.0332     [   -0.1596]
 d_dipole_x/<atom=   6,x> =     0.6795     [    3.2640]
 d_dipole_x/<atom=   6,y> =     0.6216     [    2.9858]
 d_dipole_x/<atom=   6,z> =     0.0219     [    0.1052]
 d_dipole_x/<atom=   7,x> =    -0.6516     [   -3.1297]
 d_dipole_x/<atom=   7,y> =    -0.2530     [   -1.2151]
 d_dipole_x/<atom=   7,z> =     0.0312     [    0.1501]
 d_dipole_x/<atom=   8,x> =     0.0345     [    0.1657]
 d_dipole_x/<atom=   8,y> =    -0.0557     [   -0.2675]
 d_dipole_x/<atom=   8,z> =    -0.0031     [   -0.0151]
 d_dipole_x/<atom=   9,x> =    -0.6513     [   -3.1284]
 d_dipole_x/<atom=   9,y> =     0.1149     [    0.5519]
 d_dipole_x/<atom=   9,z> =    -0.0099     [   -0.0477]
 d_dipole_x/<atom=  10,x> =     0.1191     [    0.5721]
 d_dipole_x/<atom=  10,y> =    -0.0501     [   -0.2407]
 d_dipole_x/<atom=  10,z> =     0.0662     [    0.3178]
 d_dipole_x/<atom=  11,x> =     0.0135     [    0.0650]
 d_dipole_x/<atom=  11,y> =     0.0469     [    0.2254]
 d_dipole_x/<atom=  11,z> =    -0.0345     [   -0.1656]
 d_dipole_x/<atom=  12,x> =     0.0457     [    0.2195]
 d_dipole_x/<atom=  12,y> =    -0.0580     [   -0.2786]
 d_dipole_x/<atom=  12,z> =     0.0109     [    0.0526]
 d_dipole_x/<atom=  13,x> =     0.0916     [    0.4399]
 d_dipole_x/<atom=  13,y> =     0.0076     [    0.0365]
 d_dipole_x/<atom=  13,z> =     0.0065     [    0.0314]
 d_dipole_x/<atom=  14,x> =     0.2431     [    1.1674]
 d_dipole_x/<atom=  14,y> =     0.0154     [    0.0738]
 d_dipole_x/<atom=  14,z> =     0.0051     [    0.0243]
 d_dipole_x/<atom=  15,x> =     0.1073     [    0.5154]
 d_dipole_x/<atom=  15,y> =     0.0320     [    0.1539]
 d_dipole_x/<atom=  15,z> =    -0.0169     [   -0.0810]
 d_dipole_x/<atom=  16,x> =     0.1112     [    0.5340]
 d_dipole_x/<atom=  16,y> =     0.0304     [    0.1459]
 d_dipole_x/<atom=  16,z> =     0.0048     [    0.0232]
 d_dipole_x/<atom=  17,x> =     0.2005     [    0.9632]
 d_dipole_x/<atom=  17,y> =    -0.0074     [   -0.0354]
 d_dipole_x/<atom=  17,z> =    -0.0185     [   -0.0890]
 d_dipole_x/<atom=  18,x> =     0.2369     [    1.1379]
 d_dipole_x/<atom=  18,y> =    -0.0719     [   -0.3454]
 d_dipole_x/<atom=  18,z> =    -0.0193     [   -0.0927]
 d_dipole_x/<atom=  19,x> =     0.2564     [    1.2315]
 d_dipole_x/<atom=  19,y> =    -0.0725     [   -0.3482]
 d_dipole_x/<atom=  19,z> =     0.0066     [    0.0319]
 d_dipole_x/<atom=  20,x> =     0.5593     [    2.6865]
 d_dipole_x/<atom=  20,y> =    -0.0292     [   -0.1404]
 d_dipole_x/<atom=  20,z> =    -0.0216     [   -0.1035]
  
 Y vector of derivative dipole (au) [debye/angstrom]
 d_dipole_y/<atom=   1,x> =     0.2592     [    1.2450]
 d_dipole_y/<atom=   1,y> =    -0.4336     [   -2.0829]
 d_dipole_y/<atom=   1,z> =    -0.0409     [   -0.1966]
 d_dipole_y/<atom=   2,x> =    -0.7435     [   -3.5713]
 d_dipole_y/<atom=   2,y> =     1.1283     [    5.4194]
 d_dipole_y/<atom=   2,z> =     0.1710     [    0.8214]
 d_dipole_y/<atom=   3,x> =     0.4495     [    2.1590]
 d_dipole_y/<atom=   3,y> =    -0.4935     [   -2.3704]
 d_dipole_y/<atom=   3,z> =    -0.0858     [   -0.4122]
 d_dipole_y/<atom=   4,x> =     0.7191     [    3.4541]
 d_dipole_y/<atom=   4,y> =     0.5582     [    2.6813]
 d_dipole_y/<atom=   4,z> =    -0.0639     [   -0.3067]
 d_dipole_y/<atom=   5,x> =    -0.5866     [   -2.8175]
 d_dipole_y/<atom=   5,y> =    -1.7536     [   -8.4229]
 d_dipole_y/<atom=   5,z> =    -0.0472     [   -0.2268]
 d_dipole_y/<atom=   6,x> =     0.6866     [    3.2977]
 d_dipole_y/<atom=   6,y> =     2.3791     [   11.4275]
 d_dipole_y/<atom=   6,z> =     0.0750     [    0.3603]
 d_dipole_y/<atom=   7,x> =    -0.4775     [   -2.2937]
 d_dipole_y/<atom=   7,y> =    -1.7978     [   -8.6353]
 d_dipole_y/<atom=   7,z> =    -0.0706     [   -0.3390]
 d_dipole_y/<atom=   8,x> =    -0.1920     [   -0.9223]
 d_dipole_y/<atom=   8,y> =     0.3410     [    1.6379]
 d_dipole_y/<atom=   8,z> =     0.0891     [    0.4282]
 d_dipole_y/<atom=   9,x> =     0.8033     [    3.8584]
 d_dipole_y/<atom=   9,y> =    -0.7241     [   -3.4779]
 d_dipole_y/<atom=   9,z> =     0.0193     [    0.0927]
 d_dipole_y/<atom=  10,x> =    -0.0748     [   -0.3592]
 d_dipole_y/<atom=  10,y> =     0.2069     [    0.9937]
 d_dipole_y/<atom=  10,z> =    -0.3935     [   -1.8901]
 d_dipole_y/<atom=  11,x> =     0.0143     [    0.0687]
 d_dipole_y/<atom=  11,y> =     0.0520     [    0.2500]
 d_dipole_y/<atom=  11,z> =     0.0383     [    0.1839]
 d_dipole_y/<atom=  12,x> =    -0.0095     [   -0.0458]
 d_dipole_y/<atom=  12,y> =     0.0013     [    0.0062]
 d_dipole_y/<atom=  12,z> =     0.0690     [    0.3316]
 d_dipole_y/<atom=  13,x> =     0.0072     [    0.0346]
 d_dipole_y/<atom=  13,y> =     0.0735     [    0.3532]
 d_dipole_y/<atom=  13,z> =     0.0156     [    0.0750]
 d_dipole_y/<atom=  14,x> =     0.0272     [    0.1307]
 d_dipole_y/<atom=  14,y> =     0.1267     [    0.6087]
 d_dipole_y/<atom=  14,z> =     0.0952     [    0.4572]
 d_dipole_y/<atom=  15,x> =     0.0156     [    0.0747]
 d_dipole_y/<atom=  15,y> =    -0.0300     [   -0.1440]
 d_dipole_y/<atom=  15,z> =     0.0153     [    0.0737]
 d_dipole_y/<atom=  16,x> =     0.0093     [    0.0448]
 d_dipole_y/<atom=  16,y> =    -0.0142     [   -0.0684]
 d_dipole_y/<atom=  16,z> =    -0.0356     [   -0.1708]
 d_dipole_y/<atom=  17,x> =     0.1316     [    0.6321]
 d_dipole_y/<atom=  17,y> =    -0.0298     [   -0.1430]
 d_dipole_y/<atom=  17,z> =    -0.0256     [   -0.1231]
 d_dipole_y/<atom=  18,x> =     0.0432     [    0.2077]
 d_dipole_y/<atom=  18,y> =     0.0395     [    0.1897]
 d_dipole_y/<atom=  18,z> =    -0.0149     [   -0.0717]
 d_dipole_y/<atom=  19,x> =    -0.0820     [   -0.3938]
 d_dipole_y/<atom=  19,y> =     0.0534     [    0.2566]
 d_dipole_y/<atom=  19,z> =    -0.0121     [   -0.0579]
 d_dipole_y/<atom=  20,x> =    -1.0002     [   -4.8041]
 d_dipole_y/<atom=  20,y> =     1.3166     [    6.3237]
 d_dipole_y/<atom=  20,z> =     0.2021     [    0.9708]
  
 Z vector of derivative dipole (au) [debye/angstrom]
 d_dipole_z/<atom=   1,x> =     0.0751     [    0.3609]
 d_dipole_z/<atom=   1,y> =    -0.0469     [   -0.2253]
 d_dipole_z/<atom=   1,z> =    -0.4175     [   -2.0053]
 d_dipole_z/<atom=   2,x> =    -0.1392     [   -0.6686]
 d_dipole_z/<atom=   2,y> =     0.0876     [    0.4209]
 d_dipole_z/<atom=   2,z> =     0.3977     [    1.9102]
 d_dipole_z/<atom=   3,x> =     0.0495     [    0.2378]
 d_dipole_z/<atom=   3,y> =    -0.0087     [   -0.0418]
 d_dipole_z/<atom=   3,z> =    -0.2574     [   -1.2363]
 d_dipole_z/<atom=   4,x> =     0.0382     [    0.1833]
 d_dipole_z/<atom=   4,y> =    -0.0107     [   -0.0516]
 d_dipole_z/<atom=   4,z> =     0.1151     [    0.5530]
 d_dipole_z/<atom=   5,x> =    -0.0242     [   -0.1162]
 d_dipole_z/<atom=   5,y> =    -0.0216     [   -0.1039]
 d_dipole_z/<atom=   5,z> =    -0.2646     [   -1.2708]
 d_dipole_z/<atom=   6,x> =    -0.0078     [   -0.0376]
 d_dipole_z/<atom=   6,y> =     0.0561     [    0.2693]
 d_dipole_z/<atom=   6,z> =     0.4521     [    2.1715]
 d_dipole_z/<atom=   7,x> =     0.0038     [    0.0183]
 d_dipole_z/<atom=   7,y> =    -0.0074     [   -0.0354]
 d_dipole_z/<atom=   7,z> =    -0.2187     [   -1.0506]
 d_dipole_z/<atom=   8,x> =     0.0163     [    0.0785]
 d_dipole_z/<atom=   8,y> =    -0.0088     [   -0.0421]
 d_dipole_z/<atom=   8,z> =    -0.0747     [   -0.3590]
 d_dipole_z/<atom=   9,x> =    -0.0943     [   -0.4527]
 d_dipole_z/<atom=   9,y> =     0.0875     [    0.4203]
 d_dipole_z/<atom=   9,z> =    -0.3394     [   -1.6301]
 d_dipole_z/<atom=  10,x> =     0.0572     [    0.2747]
 d_dipole_z/<atom=  10,y> =    -0.1976     [   -0.9492]
 d_dipole_z/<atom=  10,z> =     0.3117     [    1.4971]
 d_dipole_z/<atom=  11,x> =     0.0125     [    0.0602]
 d_dipole_z/<atom=  11,y> =     0.0011     [    0.0053]
 d_dipole_z/<atom=  11,z> =     0.0377     [    0.1812]
 d_dipole_z/<atom=  12,x> =    -0.0146     [   -0.0702]
 d_dipole_z/<atom=  12,y> =     0.0057     [    0.0274]
 d_dipole_z/<atom=  12,z> =     0.0323     [    0.1552]
 d_dipole_z/<atom=  13,x> =    -0.0121     [   -0.0579]
 d_dipole_z/<atom=  13,y> =     0.0240     [    0.1154]
 d_dipole_z/<atom=  13,z> =     0.0158     [    0.0757]
 d_dipole_z/<atom=  14,x> =     0.0548     [    0.2632]
 d_dipole_z/<atom=  14,y> =     0.0561     [    0.2695]
 d_dipole_z/<atom=  14,z> =     0.1384     [    0.6646]
 d_dipole_z/<atom=  15,x> =    -0.0243     [   -0.1165]
 d_dipole_z/<atom=  15,y> =    -0.0081     [   -0.0389]
 d_dipole_z/<atom=  15,z> =     0.1261     [    0.6056]
 d_dipole_z/<atom=  16,x> =     0.0120     [    0.0578]
 d_dipole_z/<atom=  16,y> =     0.0061     [    0.0294]
 d_dipole_z/<atom=  16,z> =     0.0949     [    0.4559]
 d_dipole_z/<atom=  17,x> =    -0.0095     [   -0.0458]
 d_dipole_z/<atom=  17,y> =    -0.0076     [   -0.0367]
 d_dipole_z/<atom=  17,z> =     0.0727     [    0.3494]
 d_dipole_z/<atom=  18,x> =    -0.0080     [   -0.0386]
 d_dipole_z/<atom=  18,y> =     0.0029     [    0.0141]
 d_dipole_z/<atom=  18,z> =     0.1458     [    0.7004]
 d_dipole_z/<atom=  19,x> =     0.0064     [    0.0306]
 d_dipole_z/<atom=  19,y> =    -0.0132     [   -0.0634]
 d_dipole_z/<atom=  19,z> =     0.3419     [    1.6424]
 d_dipole_z/<atom=  20,x> =     0.0081     [    0.0388]
 d_dipole_z/<atom=  20,y> =     0.0035     [    0.0166]
 d_dipole_z/<atom=  20,z> =     0.2900     [    1.3931]
  
  
 HESSIAN: the Hessian is done


  Vibrational analysis via the FX method 

  See chapter 2 in "Molecular Vibrations" by Wilson, Decius and Cross

  Vib: Default input used 

  Nuclear Hessian passed symmetry test 



 ---------------------------- Atom information ----------------------------
     atom    #        X              Y              Z            mass
 --------------------------------------------------------------------------
    O        1 -1.7985041D+00  6.2791662D+00  4.9051419D-01  1.5994910D+01
    C        2  5.3096541D-01  5.4753549D+00  8.3552142D-02  1.2000000D+01
    O        3  2.3783851D+00  6.7603667D+00 -7.9435985D-02  1.5994910D+01
    C        4  6.7569598D-01  2.6760685D+00 -1.7109651D-01  1.2000000D+01
    C        5 -1.3343691D+00  1.1519189D+00 -2.1397893D-02  1.2000000D+01
    C        6 -1.0873524D+00 -1.5281154D+00 -2.9361481D-01  1.2000000D+01
    O        7 -2.9886689D+00 -2.9171870D+00 -1.5482053D-01  1.5994910D+01
    C        8  1.3241360D+00 -3.0126495D+00 -7.8614031D-01  1.2000000D+01
    N        9  5.6101055D-01 -5.6365680D+00 -7.2166435D-01  1.4003070D+01
    C       10  1.4258351D+00 -7.1752340D+00  1.4306120D+00  1.2000000D+01
    H       11 -8.1944699D-02 -7.4165136D+00  2.8023745D+00  1.0078250D+00
    H       12  3.0424967D+00 -6.3133507D+00  2.3598930D+00  1.0078250D+00
    H       13  1.9911331D+00 -9.0265274D+00  7.5852682D-01  1.0078250D+00
    H       14  8.9705834D-01 -6.5092301D+00 -2.3801735D+00  1.0078250D+00
    H       15  2.0703635D+00 -2.4687227D+00 -2.6266439D+00  1.0078250D+00
    H       16  2.7497446D+00 -2.5574823D+00  6.2617957D-01  1.0078250D+00
    H       17  2.5733621D+00  1.9946236D+00 -4.9419160D-01  1.0078250D+00
    H       18 -3.2114745D+00  1.8843151D+00  3.0158193D-01  1.0078250D+00
    H       19 -1.7758764D+00  8.0988469D+00  6.3743968D-01  1.0078250D+00
    H       20 -2.1210987D+00 -4.7328101D+00 -4.3488532D-01  1.0078250D+00
 --------------------------------------------------------------------------




          ----------------------------------------------------
          MASS-WEIGHTED NUCLEAR HESSIAN (Hartree/Bohr/Bohr/Kamu)
          ----------------------------------------------------


               1            2            3            4            5            6            7            8            9           10
   ----- ----- ----- ----- -----
    1    4.20765D+01
    2   -9.28814D+00  5.74639D+01
    3   -6.99200D+00  6.15126D+00  1.00519D+00
    4   -3.86284D+01  1.51521D+01  6.56679D+00  1.20733D+02
    5    7.11934D+00 -1.31033D+01 -1.94362D+00  2.14900D+01  7.97877D+01
    6    5.90400D+00 -3.11751D+00 -3.35728D+00 -1.39684D+01  2.45954D+00  1.48699D+01
    7   -5.69716D+00 -2.45519D+00  8.69175D-01 -5.67208D+01 -3.36079D+01  4.98610D+00  5.44620D+01
    8    5.07015D-01  1.58818D+00 -7.85883D-02 -3.58540D+01 -3.09777D+01  2.95197D+00  3.45734D+01  2.91257D+01
    9    1.11483D+00  3.53522D-01  1.51120D+00  4.79919D+00  2.62192D+00 -3.91329D+00 -5.07169D+00 -2.63524D+00  5.80516D-01
   10    2.30291D-01  3.76036D+00  3.98933D-01 -9.45014D+00  3.14646D+00  4.43292D-01 -9.95651D-01 -4.69148D+00  4.84403D-02  9.08110D+01
   11    7.76869D-01 -2.50023D+00 -3.88024D-01  4.72692D+00 -2.56428D+01 -2.14767D+00 -3.36476D+00 -4.55235D+00 -5.47853D-02  1.00494D+01
   12    1.50339D-01 -8.24870D-01  7.30283D-01  5.86511D-01 -1.92260D+00 -8.38074D+00  1.52961D-01  1.40182D-01  1.99181D+00 -9.89091D+00
   13   -2.43755D-02  1.08666D-01  1.19475D-02  1.13125D-01 -9.24799D-01  6.66465D-02  7.10725D-01  5.93727D-01 -6.77534D-02 -4.27963D+01
   14    2.21611D-01 -3.56209D-01 -6.21773D-02 -4.61737D+00 -1.06587D+00  4.53216D-01  1.08109D+00 -4.69441D-01 -1.85586D-01 -1.86287D+01
   15    2.25159D-02 -4.57673D-02 -1.05264D-02 -2.51108D-01 -5.08870D-02  1.17321D+00 -2.18273D-02 -1.18457D-01 -1.02072D-01  3.50659D+00
   16   -1.13628D-02  1.19802D-01 -2.18466D-03 -2.38704D-01  5.31711D-02  2.73607D-01 -1.70332D-01 -1.58419D-01 -1.98414D-02 -5.89961D-01
   17   -2.96436D-01  4.12806D-01  8.74749D-02  1.24630D+00 -9.36006D-01 -4.07571D-01 -7.86488D-01  1.21174D-01  1.45254D-01 -4.04881D+00
   18   -3.93605D-02  3.02116D-02 -9.99220D-02  3.81107D-01 -2.30140D-01  1.61655D+00 -8.01422D-02  4.85817D-02 -2.13332D-01 -2.03652D-01
   19    5.95263D-02 -7.27890D-02 -1.24463D-02 -2.32779D-01  7.13212D-02  1.29056D-02  1.74805D-01  1.22467D-02 -2.05788D-02  1.09798D+00
   20    1.29161D-01 -1.96417D-01 -3.73421D-02 -6.85738D-01  6.03067D-01  1.63546D-01  2.66892D-01 -2.03361D-01 -5.83017D-02  1.82611D+00
   21    5.40697D-03 -8.87089D-03  1.41212D-02 -5.46984D-02  5.88339D-02 -1.68388D-01  3.68731D-03 -2.16194D-02  2.45032D-02  4.73286D-02
   22    3.29951D-03 -2.03736D-02 -2.35718D-03 -4.42037D-02  4.33751D-02 -7.33875D-03  7.58121D-03 -2.69032D-02 -1.86268D-03  1.88561D-02
   23   -1.62935D-02  8.89593D-03  2.96142D-03  9.22142D-02  4.89474D-04  3.01729D-04 -3.59497D-02  1.64797D-02  4.97699D-03 -3.89084D-02
   24   -1.94369D-03  5.49894D-03  3.92965D-03 -4.67259D-03  1.85118D-04 -9.60296D-02 -9.31519D-04  5.57342D-03  1.13026D-02 -1.59719D-02
   25   -2.95917D-02  6.82701D-02  1.27551D-02  2.06051D-01 -2.52499D-01 -5.85495D-02 -7.98104D-02  7.81464D-02  2.01914D-02 -5.42359D-01
   26    2.13967D-02 -5.23347D-02 -8.80351D-03 -9.87518D-02  1.49612D-01  2.78437D-02  4.39401D-02 -4.97693D-02 -1.10507D-02  1.84689D-01
   27    1.43406D-03 -4.23856D-03  3.58516D-03 -1.32683D-02  1.70669D-02 -5.84785D-03  4.09158D-03 -5.26078D-03  1.68556D-03  3.83405D-02
   28    1.84821D-03 -7.06426D-03 -1.56999D-03 -1.30522D-02  2.20227D-02  6.64685D-03  6.05789D-03 -7.27109D-03 -2.52897D-03  3.80195D-02
   29   -6.55856D-03  1.28743D-02  3.86956D-03  3.01441D-02 -3.86625D-02 -9.10748D-03 -1.32980D-02  1.22944D-02  3.77663D-03 -6.20492D-02
   30    1.29830D-02 -2.93703D-02 -7.47804D-03 -5.42566D-02  8.02429D-02  1.82091D-02  2.49622D-02 -2.68525D-02 -7.43438D-03  1.07311D-01
   31   -2.29598D-03  5.07386D-03  5.74884D-04  5.91906D-03 -1.08231D-02 -4.04150D-04 -3.21659D-03  3.90642D-03  5.00949D-04 -7.67918D-03
   32   -1.41669D-03  1.20318D-03 -2.68809D-03  5.03254D-03 -5.31621D-03  4.09297D-03 -2.27475D-03  1.42103D-03 -8.73588D-04 -4.76734D-03
   33    9.78612D-05  3.29183D-03 -5.76285D-04  3.75443D-03 -1.04411D-02 -1.25408D-03 -2.15302D-03  3.81391D-03  8.52786D-04 -1.37540D-02
   34   -3.87762D-04 -3.59914D-03  1.44102D-03 -3.45846D-03  1.11581D-02  3.77230D-04  2.42456D-03 -4.05198D-03 -6.49357D-04  1.52343D-02
   35    9.03314D-04 -1.97172D-03 -2.51573D-03 -8.62310D-03  7.94147D-03  7.74910D-03  3.00125D-03 -2.23293D-03 -2.37439D-03  2.89988D-02
   36   -4.26530D-03  7.44478D-03  1.78296D-04  1.82243D-02 -2.22726D-02 -2.21397D-03 -7.63691D-03  7.26166D-03  5.71106D-04 -3.40900D-02
   37   -1.48753D-03  1.08820D-03  5.73826D-04  2.35637D-03 -1.31362D-03 -1.21467D-03 -8.22940D-04  2.84239D-04  5.68738D-04 -1.24410D-03
   38   -1.08182D-03 -1.05541D-04 -6.19714D-04  6.80588D-04  4.42083D-04  9.15403D-04 -3.88780D-04 -2.49310D-04 -3.94823D-04  6.13248D-03
   39   -5.74721D-03  1.44840D-02  4.71956D-03  2.33554D-02 -3.66396D-02 -1.08532D-02 -1.07948D-02  1.26570D-02  3.78644D-03 -4.94968D-02
   40   -1.14201D-02  6.51063D-03 -2.02397D-03  1.96536D-02 -5.35758D-03 -2.80152D-03 -7.72225D-03  1.48494D-03  1.37701D-03  1.16272D-02
   41   -4.63598D-03 -2.60889D-04  2.64625D-03  1.58044D-02 -6.31816D-03 -8.14607D-03 -7.52321D-03  2.18098D-04  2.46208D-03 -1.85168D-02
   42   -1.81828D-02  4.06167D-02  2.69605D-03  7.15073D-02 -1.08657D-01 -1.43621D-02 -3.27250D-02  3.67929D-02  5.73661D-03 -1.36790D-01
   43   -1.13124D-02 -5.04296D-04 -3.38619D-03  3.23542D-02  2.49109D-02  4.27383D-02 -1.65567D-02 -1.02284D-02 -9.87933D-04 -3.35777D-03
   44    5.50486D-03 -1.78131D-02  7.87524D-03 -1.24926D-01  1.03709D-01 -9.14430D-02  4.98280D-02 -2.35066D-02  8.98736D-03  5.34026D-01
   45   -1.30780D-02  4.59342D-02 -5.89702D-04  3.75615D-02 -1.16236D-01  8.79716D-03 -2.50838D-02  3.78150D-02  4.80949D-04 -1.20935D-01
   46   -8.39614D-03 -1.71792D-02  1.88649D-03  2.57631D-02  5.74456D-02 -1.33980D-02 -9.94919D-03 -1.98811D-02 -1.68691D-03  1.36546D-02
   47   -1.73243D-03 -3.42599D-03 -9.13266D-03 -7.88270D-02  5.78452D-02  1.38054D-01  3.59943D-02 -1.16733D-02 -2.44321D-02  5.56761D-01
   48    1.21149D-02 -4.10627D-02 -1.38727D-02 -2.97800D-02  9.43383D-02  6.56604D-02  2.64293D-02 -3.01510D-02 -1.65004D-02  1.87503D-01
   49    3.31934D-02 -4.62951D-01 -9.50784D-03  1.48794D+00 -1.56619D+00  2.57105D-02 -2.49823D-02 -4.70797D-02 -7.04514D-02 -1.25504D+02
   50   -7.96551D-01 -1.94851D+00 -6.41949D-02  1.12378D+01 -1.48157D+00 -1.92896D+00 -8.99144D-02  1.44955D+00  1.67928D-01  3.81763D+01
   51   -3.49779D-02 -1.15872D-01  2.38784D-01  1.08738D+00 -1.38161D-01  2.37886D+00 -6.90712D-02  1.69531D-01 -4.61282D-01  1.85501D+01
   52   -1.53726D-01  3.85339D-01  5.42498D-02  8.02106D-01 -3.52107D-01 -5.32685D-01 -1.92740D-01  2.27273D-01  9.27271D-02 -4.92020D+00
   53    2.14661D-02 -5.31906D-01 -4.51269D-02 -2.97705D-01  1.13586D+00  3.83640D-01  2.73896D-01 -9.13882D-02 -7.74076D-02 -8.37327D+00
   54    2.12367D-02 -1.02852D-01 -1.75742D-02 -5.25620D-01  3.80735D-01 -2.69856D+00  9.87542D-02 -6.24667D-02  3.09726D-01  1.86623D-01
   55   -1.24632D+01 -1.87250D+01  3.48751D-01 -4.70244D+00  2.46261D+01  2.58438D+00  2.45936D+00 -1.34191D+00 -5.82792D-01 -2.54462D+00
   56    8.49097D+00 -1.78618D+02 -1.60341D+01 -5.57596D+00 -5.64502D+00  4.27192D-01 -2.19437D+00  6.46103D-01  4.38349D-01  7.00709D-01
   57    2.59760D+00 -1.20483D+01 -8.70004D-01  7.77468D-02 -3.99282D+00 -1.30340D+00 -6.50806D-01  3.13676D-01 -6.58137D-01  7.35198D-01
   58    1.67248D-01 -3.23575D-01 -5.46162D-02 -1.02155D+00  1.16901D+00  1.78597D-01  3.71696D-01 -3.80606D-01 -7.84643D-02  2.40405D+00
   59   -2.35237D-01  4.17471D-01  7.18162D-02  1.14429D+00 -1.31176D+00 -2.32246D-01 -5.16074D-01  3.72702D-01  1.01867D-01 -2.79417D+00
   60   -3.94125D-02  7.33436D-02  1.99366D-02  1.54179D-01 -2.10659D-01 -5.14982D-01 -7.88910D-02  7.28555D-02  8.30883D-02 -5.30275D-01


              11           12           13           14           15           16           17           18           19           20
   ----- ----- ----- ----- -----
   11    7.39747D+01
   12    3.68485D+00  1.56054D+01
   13   -1.99955D+01  3.40267D+00  8.90530D+01
   14   -2.57558D+01  9.15871D-01  5.96284D+00  7.13523D+01
   15    1.10187D+00 -6.50423D+00 -1.01167D+01  4.31677D+00  1.44042D+01
   16   -4.77246D+00 -2.52231D-01 -1.04550D+01  6.23039D+00  9.95098D-01  8.23935D+01
   17   -5.74964D+00  2.31972D-02  9.26706D+00 -2.82924D+01 -3.16976D+00  1.73456D+01  9.05349D+01
   18    1.20155D-01  6.11540D-01  1.29780D+00 -2.72552D+00 -7.64792D+00 -7.40744D+00  3.96550D+00  2.02781D+01
   19    1.24091D+00 -1.87382D-02 -3.02991D-01 -3.21408D+00 -1.13330D-01 -4.38989D+01 -2.05155D+01  3.56845D+00  5.19965D+01
   20    3.87443D-01 -2.42450D-01 -6.26504D+00 -6.13720D+00  2.45797D-01 -2.50100D+01 -2.59673D+01  1.54771D+00  1.38717D+01  4.19716D+01
   21   -1.58171D-01  1.93166D-01 -3.94791D-01 -1.92633D-01  9.58452D-01  3.18299D+00  9.75592D-01 -5.09490D+00 -5.30315D+00  1.34655D+00
   22    4.23531D-02 -3.24870D-02  8.37676D-01  3.81700D-03  9.06584D-03 -1.92787D+01  5.62455D+00  1.82624D+00 -4.98149D+00 -2.02963D-01
   23   -7.15996D-02  2.08652D-02  1.97728D+00 -3.22542D-01 -4.50108D-01  8.00756D+00 -1.33506D+01 -1.58772D+00 -8.56384D-01 -1.06345D-01
   24    3.08800D-02 -2.24226D-01  1.60474D-01 -1.77265D-01  9.56833D-01  1.90686D+00 -1.16372D+00 -1.01540D+01  1.04779D+00 -9.20123D-02
   25   -1.88116D-01  5.73327D-02  7.67351D-01  1.14668D+00  4.67270D-02 -2.72377D+00 -9.66981D-01  1.04384D-01 -1.63470D+00  7.35382D+00
   26    1.29588D-01 -1.26606D-02 -1.59681D-02 -2.05589D-01 -5.58572D-03  3.29849D+00 -2.89131D+00 -5.18692D-01  4.52254D-01 -3.59875D+00
   27    9.59380D-03 -4.15557D-03  2.83265D-02 -7.98380D-02  1.15927D-01  4.07020D-01 -5.98032D-01  3.28537D-01  4.44640D-01 -1.09978D+00
   28    1.56217D-02 -3.99950D-03 -5.19865D-02 -8.25546D-02 -1.65513D-02 -8.94139D-02  2.69074D-01 -5.62412D-03 -4.77938D-02 -3.05584D-02
   29   -2.19601D-02  6.82987D-03  1.35796D-01  1.32665D-01 -2.40698D-02 -5.04978D-01 -5.47118D-01  8.78556D-02 -7.72039D-02  7.28256D-01
   30    5.13907D-02 -7.71424D-03 -3.97447D-02 -1.97262D-01 -2.20436D-02  3.13708D-01  1.24047D-01 -3.43892D-03  1.06699D-01 -8.08679D-01
   31   -7.90675D-03  4.98898D-04 -3.84017D-02  1.11354D-02  3.14309D-03  1.75773D-01 -3.68304D-03 -1.50467D-02 -4.55162D-02 -1.03649D-01
   32   -5.64551D-03  2.96980D-03  1.96697D-02  1.57205D-02 -2.09396D-02 -1.36709D-01  1.17466D-02  8.73596D-02  7.57227D-02 -1.02639D-02
   33   -7.51377D-03  2.24555D-03  9.41931D-03  2.56813D-02 -1.78249D-03 -3.22113D-02 -9.95482D-02 -4.46008D-03 -9.44416D-02  1.84214D-01
   34    1.32573D-02 -3.24925D-03  1.86377D-02 -3.27388D-02 -1.11703D-02 -2.13590D-01 -2.38257D-02  8.55717D-03  5.24352D-02  1.17611D-01
   35    9.08055D-03 -2.90404D-03 -2.91026D-02 -5.18734D-02 -2.00190D-02  1.74234D-01  7.23670D-02 -5.40897D-02  1.07909D-01 -4.45282D-01
   36   -1.45402D-02  5.72301D-03  4.60642D-02  6.93200D-02 -8.39468D-03 -2.15662D-01 -1.64527D-01  5.68799D-02 -6.72376D-02  4.77120D-01
   37   -1.49162D-03  2.05589D-04 -2.29185D-02 -2.80822D-03  3.14709D-03  4.47878D-02  8.38844D-02  5.89332D-02 -8.11122D-03 -5.97945D-03
   38    5.06549D-03  9.32990D-04  2.60144D-02 -5.18533D-03 -1.05514D-02 -5.34581D-02 -1.01712D-01  2.75437D-02  3.63403D-03  2.43799D-02
   39   -2.63678D-02  7.04447D-04 -7.35293D-02  7.53484D-02  4.18620D-02  8.15810D-02  2.76578D-01 -8.69944D-02 -8.55452D-02  2.85706D-01
   40   -8.39486D-05  4.22253D-03 -4.46007D-02 -8.55576D-02  3.12071D-02 -1.21313D+00  4.98553D-01  4.44300D-01 -6.01278D-01  1.45391D+00
   41    1.15492D-02 -7.00341D-04  4.30290D-01  8.79031D-02  2.29505D-02 -1.13125D+00 -1.81680D+00 -1.66527D-01 -2.63500D-01  1.01045D+00
   42   -6.03734D-02  1.80504D-02  4.99675D-03  2.51473D-01 -9.83998D-03 -4.55935D-01  2.65553D-01  1.02469D-01 -3.80553D-01  1.44625D+00
   43   -7.23390D-02  1.29173D-01  1.51980D-01 -2.35470D-02 -6.08532D-01 -4.56954D+00 -2.44383D+00  1.02774D+01 -5.44944D-01  5.30724D-01
   44    1.76395D-01 -2.43876D-01 -3.05517D-01 -9.87051D-01  5.00904D-01  8.91851D-01  3.36917D+00 -6.63253D+00  8.63575D-01  3.32409D-01
   45    1.53967D-02  8.12342D-02 -6.78729D-02  2.39047D-01  1.34262D-01  6.29905D-01  2.41318D-01 -2.37391D-01 -7.76267D-01 -2.84169D-01
   46   -7.93700D-02 -8.72759D-02  4.50286D-01 -2.09970D-01  4.34500D-01 -7.52759D+00 -2.18515D+00 -7.05557D+00  2.37391D-02  6.59193D-01
   47    7.62271D-02  1.01267D-01 -5.05760D-01 -7.66462D-01 -4.55393D-01  3.20028D+00  3.06663D+00  5.84489D+00  7.23871D-01  4.60296D-01
   48   -3.23988D-02  9.53781D-02 -6.30645D-02 -1.99251D-01 -1.61861D-01  3.01026D+00  6.46401D-01  3.23085D+00  7.65254D-01  1.01744D-01
   49    3.66074D+01  1.84056D+01 -3.09841D+00  6.84099D+00  1.42239D+00  1.68276D-01 -2.21175D+00 -7.06019D-01  3.80450D-01  1.07850D+00
   50   -3.54068D+01 -6.97904D+00 -8.83328D+00  3.23149D+00  1.26541D+00  1.20492D-01  1.50755D+00  4.11515D-01 -3.62584D-02 -3.01293D-01
   51   -6.76705D+00 -1.91293D+01  7.69102D-02 -8.98450D-01  2.79634D+00 -5.23306D-01  7.32295D-01 -3.28674D+00 -2.11711D-02 -1.72994D-01
   52    2.97582D+00  1.15140D+00 -1.21662D+02  4.07261D+01  1.83510D+01  2.66079D+00 -2.16101D+00 -4.16540D-01 -5.10886D-02 -1.71875D-01
   53    4.61581D+00  1.42653D+00  3.91426D+01 -3.56413D+01 -7.24257D+00  1.07021D+01 -5.14967D+00 -2.05249D+00  2.18234D-01  1.62685D+00
   54   -1.50172D-01  1.51455D+00  1.81662D+01 -7.43437D+00 -1.78146D+01  7.14406D-01 -2.69517D-01  9.63638D-01 -4.86907D-02  2.34505D-01
   55    6.82579D-01  7.27618D-01 -1.29277D-01 -4.56898D-01 -4.88744D-02  1.35558D-01  1.40282D-01 -2.25205D-02 -4.30845D-02 -8.83902D-02
   56    1.67373D-01 -2.57346D-01  4.01564D-02  4.19015D-01  4.52663D-02  7.79661D-02 -1.24000D-01 -1.33144D-02  1.73225D-02  2.55706D-02
   57   -2.57038D-01  1.93064D+00 -3.25239D-03  1.19166D-01 -1.71186D-01 -2.84976D-02 -2.21495D-02 -9.87548D-02  9.21047D-03  1.62382D-02
   58    2.26938D-01 -3.14675D-01 -6.65324D+00 -5.01539D+00  9.65310D-01  1.75587D+01 -4.54187D+00 -2.51508D+00 -3.42538D+01  1.70678D+01
   59   -1.31881D+00  2.76106D-01  4.57903D+00  6.82583D+00 -3.37439D-01 -1.73082D+01 -3.24866D+01 -7.22341D-01  2.21582D+01 -4.97061D+01
   60   -1.46423D-01  8.65172D-02  1.63644D+00  8.81480D-01  3.24957D+00 -2.89991D+00 -2.02295D+00  3.46033D+00  4.41438D+00 -5.98105D+00


              21           22           23           24           25           26           27           28           29           30
   ----- ----- ----- ----- -----
   21    4.91490D+00
   22    1.22623D+00  6.66604D+01
   23   -5.57545D-02  8.77393D+00  6.20680D+01
   24    2.97008D+00  2.39818D+00 -1.80456D+00  7.07904D+01
   25    8.34552D-01 -8.28957D+00 -3.11846D+00 -2.68604D-01  1.93725D+01
   26   -3.85176D-01 -8.99050D+00 -2.84906D+01  8.14261D-01 -3.10612D+00  6.50439D+01
   27    7.10389D-01 -7.29742D-01 -5.86304D-01 -1.09317D+01  5.59145D-02  6.48335D+00  7.03813D+01
   28    1.81143D-01 -2.09528D-01 -1.12322D+00  1.41345D+00 -8.27859D+00  4.64820D+00 -7.62234D+00  7.00214D+01
   29    5.27759D-02  1.73619D+00 -2.25530D+00  2.65920D+00  1.70831D+00 -1.52574D+01  8.40628D+00  2.04834D+00  7.08341D+01
   30   -1.03923D-01 -1.81620D-01  7.20291D-01  3.64553D-01 -3.38683D+00  7.58564D+00 -2.24270D+01 -2.20847D+00  4.33056D+00  6.85881D+01
   31    5.53413D-02  1.07750D-01 -5.22567D-02 -5.46396D-01  4.51784D+00  1.27135D+00 -5.07177D+00 -8.59272D+01 -1.01481D+01  5.74636D+01
   32   -7.37846D-02 -1.69978D-01 -2.25576D-01  4.95393D-01 -3.67267D+00 -5.66244D-01  5.56790D+00 -9.08301D+00 -2.37468D+01  6.36359D+00
   33    2.77142D-02  4.57295D-01 -1.30136D-01 -4.93827D-01  3.86480D+00  1.56355D+00 -6.22606D+00  5.52374D+01  7.15496D+00 -7.01313D+01
   34    2.24110D-02  7.23899D-01 -6.34466D-01  5.30817D-01 -1.35727D+00 -1.52940D-01 -1.52119D+00 -9.19482D+01 -3.78855D+01 -3.87890D+01
   35   -6.73736D-02  7.86762D-01  1.14350D+00  6.21558D-01  6.62200D+00  1.64571D+00  5.59553D+00 -3.95879D+01 -4.29199D+01 -2.35586D+01
   36    9.27605D-02  6.42709D-02 -1.29713D+00  6.63005D-01 -7.60008D+00 -2.57592D+00 -5.71338D+00 -3.74525D+01 -2.07067D+01 -4.35330D+01
   37   -1.09870D-02 -3.95756D-01 -3.29446D-01 -1.49963D-02 -7.01753D-01  3.02880D+00  4.08884D-01 -3.07671D+01  2.80227D+01  1.08449D+01
   38   -2.47880D-02  4.93510D-01 -1.64329D-01  3.63295D-01  1.04235D+00 -4.56017D+00 -1.59873D+00  2.82061D+01 -1.15498D+02 -3.44651D+01
   39    8.96977D-02 -1.20213D+00  2.04507D-01 -1.11793D+00 -3.04552D+00  1.14936D+01  1.93675D+00  1.16276D+01 -3.86439D+01 -3.52211D+01
   40   -5.26081D-01 -6.83410D-01 -6.27017D+00 -6.33698D+00 -1.11726D+01  1.91643D+01  3.35053D+01 -4.11837D-01 -2.05845D+00 -6.36338D+00
[...]
   11 H                    1.0000    -0.06112097    -3.91841201     1.49155628
   12 H                    1.0000     1.59674568    -3.35100661     1.24892137
   13 H                    1.0000     1.02428108    -4.78675977     0.41150761
   14 H                    1.0000     0.43925519    -3.46343078    -1.25475963
   15 H                    1.0000     1.08914616    -1.33162270    -1.40961264
   16 H                    1.0000     1.46837560    -1.37024117     0.30791516
   17 H                    1.0000     1.39518757     1.06666143    -0.26429239
   18 H                    1.0000    -1.66676854     1.00938788     0.15290739
   19 H                    1.0000    -0.99267110     4.24751387     0.33478376
   20 H                    1.0000    -1.13138661    -2.49386951    -0.21923488





 ===============================================================================
      Negative Nuclear Hessian Mode    5  Eigenvalue =   -114.98 cm**(-1)
 -------------------------------------------------------------------------------
   Raw step length:  0.347 angstroms ;  The Raw step for this mode is:
    1 O                    8.0000     0.00234397    -0.00315127     0.00100462
    2 C                    6.0000     0.00199932    -0.00869092     0.01151001
    3 O                    8.0000     0.00488008    -0.01316442     0.00652726
    4 C                    6.0000     0.00068781    -0.00970531     0.01615118
    5 C                    6.0000     0.00361894    -0.01411082     0.03497938
    6 C                    6.0000     0.00205085    -0.00880121    -0.00432905
    7 O                    8.0000    -0.01136719     0.00074814    -0.00930978
    8 C                    6.0000    -0.01080045    -0.00530173    -0.06605083
    9 N                    7.0000     0.02006095    -0.01096652    -0.02097954
   10 C                    6.0000    -0.00944786     0.06416375     0.04297099
   11 H                    1.0000    -0.03654333     0.08140824     0.01611914
   12 H                    1.0000    -0.04167671     0.11013775     0.05670779
   13 H                    1.0000     0.03104091     0.05180154     0.11084589
   14 H                    1.0000     0.08328714    -0.05175471     0.01448446
   15 H                    1.0000    -0.09187040    -0.01751267    -0.10321418
   16 H                    1.0000     0.04303277     0.02926314    -0.13103927
   17 H                    1.0000    -0.00292374    -0.00650562    -0.01397993
   18 H                    1.0000     0.00683097    -0.01866676     0.06429716
   19 H                    1.0000    -0.00565323     0.00364669    -0.08161522
   20 H                    1.0000    -0.05691497     0.00861377    -0.03238974


  Geometry after  100.0% step for mode  5; Step length =  0.347 angstroms 
   Maximum component (any atom: x,y, or z) displacement:  0.248
    1 O                    8.0000    -0.94938350     3.31964062     0.26057356
    2 C                    6.0000     0.28297414     2.88874232     0.05572390
    3 O                    8.0000     1.26346738     3.56426785    -0.03550846
    4 C                    6.0000     0.35825075     1.40640927    -0.07438920
    5 C                    6.0000    -0.70249883     0.59545846     0.02365610
    6 C                    6.0000    -0.57335130    -0.81744513    -0.15970333
    7 O                    8.0000    -1.59290281    -1.54296087    -0.09123728
    8 C                    6.0000     0.68990222    -1.59952731    -0.48205840
    9 N                    7.0000     0.31693497    -2.99371006    -0.40286790
   10 C                    6.0000     0.74507162    -3.73280687     0.80001833
   11 H                    1.0000    -0.07990660    -3.84324203     1.49907199
   12 H                    1.0000     1.56834330    -3.23074382     1.30550948
   13 H                    1.0000     1.08470326    -4.72483140     0.51224103
   14 H                    1.0000     0.55799000    -3.49629120    -1.24504921
   15 H                    1.0000     1.00371884    -1.32390454    -1.49317437
   16 H                    1.0000     1.49813507    -1.32409833     0.20032071
   17 H                    1.0000     1.35884093     1.04900379    -0.27549488
   18 H                    1.0000    -1.69260828     0.97846995     0.22388746
   19 H                    1.0000    -0.94540660     4.28937221     0.25570336
   20 H                    1.0000    -1.17935215    -2.49588167    -0.26252116


  Geometry after -100.0% step for mode  5; Step length =  0.347 angstroms 
   Maximum component (any atom: x,y, or z) displacement:  0.248
    1 O                    8.0000    -0.95407145     3.32594317     0.25856433
    2 C                    6.0000     0.27897549     2.90612417     0.03270389
    3 O                    8.0000     1.25370721     3.59059668    -0.04856297
    4 C                    6.0000     0.35687513     1.42581989    -0.10669156
    5 C                    6.0000    -0.70973670     0.62368009    -0.04630266
    6 C                    6.0000    -0.57745301    -0.79984270    -0.15104523
    7 O                    8.0000    -1.57016842    -1.54445715    -0.07261773
    8 C                    6.0000     0.71150311    -1.58892385    -0.34995674
    9 N                    7.0000     0.27681307    -2.97177701    -0.36090881
   10 C                    6.0000     0.76396735    -3.86113436     0.71407635
   11 H                    1.0000    -0.00681994    -4.00605851     1.46683372
   12 H                    1.0000     1.65169671    -3.45101932     1.19209389
   13 H                    1.0000     1.02262144    -4.82843448     0.29054924
   14 H                    1.0000     0.39141572    -3.39278178    -1.27401813
   15 H                    1.0000     1.18745964    -1.28887919    -1.28674600
   16 H                    1.0000     1.41206953    -1.38262461     0.46239925
   17 H                    1.0000     1.36468840     1.06201503    -0.24753502
   18 H                    1.0000    -1.70627022     1.01580346     0.09529314
   19 H                    1.0000    -0.93410015     4.28207882     0.41893380
   20 H                    1.0000    -1.06552222    -2.51310920    -0.19774167


  Geometry after   50.0% step for mode  5; Step length =  0.173 angstroms 
   Maximum component (any atom: x,y, or z) displacement:  0.124
    1 O                    8.0000    -0.95055549     3.32121626     0.26007126
    2 C                    6.0000     0.28197447     2.89308779     0.04996890
    3 O                    8.0000     1.26102734     3.57085006    -0.03877209
    4 C                    6.0000     0.35790684     1.41126192    -0.08246479
    5 C                    6.0000    -0.70430830     0.60251387     0.00616641
    6 C                    6.0000    -0.57437673    -0.81304452    -0.15753880
    7 O                    8.0000    -1.58721921    -1.54333494    -0.08658239
    8 C                    6.0000     0.69530244    -1.59687644    -0.44903298
    9 N                    7.0000     0.30690449    -2.98822680    -0.39237813
   10 C                    6.0000     0.74979555    -3.76488874     0.77853283
   11 H                    1.0000    -0.06163493    -3.88394615     1.49101242
   12 H                    1.0000     1.58918166    -3.28581270     1.27715558
   13 H                    1.0000     1.06918280    -4.75073217     0.45681808
   14 H                    1.0000     0.51634643    -3.47041385    -1.25229144
   15 H                    1.0000     1.04965404    -1.31514820    -1.44156728
   16 H                    1.0000     1.47661869    -1.33872990     0.26584035
   17 H                    1.0000     1.36030280     1.05225660    -0.26850491
   18 H                    1.0000    -1.69602376     0.98780333     0.19173888
   19 H                    1.0000    -0.94257999     4.28754886     0.29651097
   20 H                    1.0000    -1.15089467    -2.50018855    -0.24632629


  Geometry after  -50.0% step for mode  5; Step length =  0.173 angstroms 
   Maximum component (any atom: x,y, or z) displacement:  0.124
    1 O                    8.0000    -0.95289946     3.32436753     0.25906664
    2 C                    6.0000     0.27997515     2.90177871     0.03845889
    3 O                    8.0000     1.25614725     3.58401448    -0.04529934
    4 C                    6.0000     0.35721903     1.42096723    -0.09861597
    5 C                    6.0000    -0.70792723     0.61662468    -0.02881297
    6 C                    6.0000    -0.57642758    -0.80424330    -0.15320975
    7 O                    8.0000    -1.57585202    -1.54408308    -0.07727262
    8 C                    6.0000     0.70610289    -1.59157471    -0.38298216
    9 N                    7.0000     0.28684354    -2.97726028    -0.37139858
   10 C                    6.0000     0.75924341    -3.82905249     0.73556185
   11 H                    1.0000    -0.02509161    -3.96535439     1.47489328
   12 H                    1.0000     1.63085836    -3.39595045     1.22044778
   13 H                    1.0000     1.03814189    -4.80253371     0.34597219
   14 H                    1.0000     0.43305929    -3.41865914    -1.26677590
   15 H                    1.0000     1.14152444    -1.29763553    -1.33835309
   16 H                    1.0000     1.43358592    -1.36799304     0.39687962
   17 H                    1.0000     1.36322653     1.05876222    -0.25452499
   18 H                    1.0000    -1.70285474     1.00647008     0.12744172
   19 H                    1.0000    -0.93692676     4.28390217     0.37812619
   20 H                    1.0000    -1.09397970    -2.50880232    -0.21393654


  Geometry after   80.8% step for mode  5; Step length =  0.280 angstroms 
   Maximum component (any atom: x,y, or z) displacement:  0.200
    1 O                    8.0000    -0.94983434     3.32024673     0.26038034
    2 C                    6.0000     0.28258959     2.89041392     0.05351009
    3 O                    8.0000     1.26252875     3.56679987    -0.03676390
    4 C                    6.0000     0.35811846     1.40827597    -0.07749568
    5 C                    6.0000    -0.70319489     0.59817251     0.01692824
    6 C                    6.0000    -0.57374576    -0.81575232    -0.15887069
    7 O                    8.0000    -1.59071646    -1.54310476    -0.08944666
    8 C                    6.0000     0.69197955    -1.59850759    -0.46935432
    9 N                    7.0000     0.31307649    -2.99160078    -0.39883274
   10 C                    6.0000     0.74688880    -3.74514799     0.79175338
   11 H                    1.0000    -0.07287793    -3.85889992     1.49597167
   12 H                    1.0000     1.57635931    -3.25192749     1.29460242
   13 H                    1.0000     1.07873291    -4.73479480     0.49092116
   14 H                    1.0000     0.54197073    -3.48633681    -1.24783512
   15 H                    1.0000     1.02138900    -1.32053618    -1.47332237
   16 H                    1.0000     1.48985824    -1.32972674     0.22552453
   17 H                    1.0000     1.35940328     1.05025507    -0.27280601
   18 H                    1.0000    -1.69392213     0.98206027     0.21152068
   19 H                    1.0000    -0.94431927     4.28867081     0.27140106
   20 H                    1.0000    -1.16840524    -2.49753842    -0.25629138


  Geometry after  -80.8% step for mode  5; Step length =  0.280 angstroms 
   Maximum component (any atom: x,y, or z) displacement:  0.200
    1 O                    8.0000    -0.95362061     3.32533706     0.25875756
    2 C                    6.0000     0.27936004     2.90445258     0.03491770
    3 O                    8.0000     1.25464584     3.58806467    -0.04730753
    4 C                    6.0000     0.35700742     1.42395319    -0.10358508
    5 C                    6.0000    -0.70904064     0.62096605    -0.03957480
    6 C                    6.0000    -0.57705855    -0.80153550    -0.15187787
    7 O                    8.0000    -1.57235476    -1.54431326    -0.07440835
    8 C                    6.0000     0.70942577    -1.58994357    -0.36266082
    9 N                    7.0000     0.28067155    -2.97388629    -0.36494397
   10 C                    6.0000     0.76215016    -3.84879324     0.72234130
   11 H                    1.0000    -0.01384861    -3.99040062     1.46993404
   12 H                    1.0000     1.64368070    -3.42983566     1.20300095
   13 H                    1.0000     1.02859178    -4.81847108     0.31186911
   14 H                    1.0000     0.40743500    -3.40273618    -1.27123222
   15 H                    1.0000     1.16978948    -1.29224754    -1.30659800
   16 H                    1.0000     1.42034636    -1.37699620     0.43719543
   17 H                    1.0000     1.36412606     1.06076375    -0.25022389
   18 H                    1.0000    -1.70495637     1.01221314     0.10765992
   19 H                    1.0000    -0.93518748     4.28278022     0.40323610
   20 H                    1.0000    -1.07646913    -2.51145245    -0.20397145


  Geometry after   40.4% step for mode  5; Step length =  0.140 angstroms 
   Maximum component (any atom: x,y, or z) displacement:  0.100
    1 O                    8.0000    -0.95078091     3.32151931     0.25997464
    2 C                    6.0000     0.28178220     2.89392358     0.04886199
    3 O                    8.0000     1.26055802     3.57211607    -0.03939981
    4 C                    6.0000     0.35784070     1.41219527    -0.08401803
    5 C                    6.0000    -0.70465633     0.60387089     0.00280248
    6 C                    6.0000    -0.57457396    -0.81219812    -0.15712248
    7 O                    8.0000    -1.58612604    -1.54340689    -0.08568708
    8 C                    6.0000     0.69634111    -1.59636658    -0.44268094
    9 N                    7.0000     0.30497525    -2.98717216    -0.39036055
   10 C                    6.0000     0.75070414    -3.77105930     0.77440036
   11 H                    1.0000    -0.05812060    -3.89177509     1.48946226
   12 H                    1.0000     1.59318966    -3.29640453     1.27170205
   13 H                    1.0000     1.06619763    -4.75571387     0.44615815
   14 H                    1.0000     0.50833679    -3.46543665    -1.25368439
   15 H                    1.0000     1.05848912    -1.31346402    -1.43164128
   16 H                    1.0000     1.47248027    -1.34154411     0.27844226
   17 H                    1.0000     1.36058397     1.05288224    -0.26716048
   18 H                    1.0000    -1.69668069     0.98959849     0.18555549
   19 H                    1.0000    -0.94203632     4.28719816     0.30435982
   20 H                    1.0000    -1.14542122    -2.50101693    -0.24321140


  Geometry after  -40.4% step for mode  5; Step length =  0.140 angstroms 
   Maximum component (any atom: x,y, or z) displacement:  0.100
    1 O                    8.0000    -0.95267404     3.32406448     0.25916325
    2 C                    6.0000     0.28016742     2.90094291     0.03956579
    3 O                    8.0000     1.25661657     3.58274847    -0.04467162
    4 C                    6.0000     0.35728518     1.42003388    -0.09706273
    5 C                    6.0000    -0.70757920     0.61526766    -0.02544904
    6 C                    6.0000    -0.57623035    -0.80508971    -0.15362607
    7 O                    8.0000    -1.57694519    -1.54401113    -0.07816793
    8 C                    6.0000     0.70506422    -1.59208458    -0.38933420
    9 N                    7.0000     0.28877278    -2.97831491    -0.37341616
   10 C                    6.0000     0.75833482    -3.82288193     0.73969432
   11 H                    1.0000    -0.02860594    -3.95752544     1.47644344
   12 H                    1.0000     1.62685036    -3.38535862     1.22590131
   13 H                    1.0000     1.04112706    -4.79755201     0.35663212
   14 H                    1.0000     0.44106893    -3.42363633    -1.26538295
   15 H                    1.0000     1.13268936    -1.29931970    -1.34827909
   16 H                    1.0000     1.43772433    -1.36517884     0.38427771
   17 H                    1.0000     1.36294536     1.05813658    -0.25586942
   18 H                    1.0000    -1.70219781     1.00467492     0.13362511
   19 H                    1.0000    -0.93747043     4.28425287     0.37027734
   20 H                    1.0000    -1.09945316    -2.50797394    -0.21705143


 vib:animation  F

 Task  times  cpu:       18.9s     wall:       18.9s
 Summary of allocated global arrays
-----------------------------------
  No active global arrays



                         GA Statistics for process    0
                         ------------------------------

       create   destroy   get      put      acc     scatter   gather  read&inc
calls: 6327     6327     2.40e+05 2.79e+05 8.92e+04 1141        0     2983     
number of processes/call 1.00e+00 1.00e+00 1.00e+00 0.00e+00 0.00e+00
bytes total:             7.18e+08 1.98e+08 1.11e+09 6.69e+03 0.00e+00 2.39e+04
bytes remote:            0.00e+00 0.00e+00 0.00e+00 0.00e+00 0.00e+00 0.00e+00
Max memory consumed for GA by this process: 16801920 bytes
MA_summarize_allocated_blocks: starting scan ...
MA_summarize_allocated_blocks: scan completed: 0 heap blocks, 0 stack blocks
MA usage statistics:

	allocation statistics:
					      heap	     stack
					      ----	     -----
	current number of blocks	         0	         0
	maximum number of blocks	        25	        36
	current total bytes		         0	         0
	maximum total bytes		  28364664	  67351960
	maximum total K-bytes		     28365	     67352
	maximum total M-bytes		        29	        68


                                NWChem Input Module
                                -------------------





                                     CITATION
                                     --------
                Please cite the following reference when publishing
                           results obtained with NWChem:

                 M. Valiev, E.J. Bylaska, N. Govind, K. Kowalski,
              T.P. Straatsma, H.J.J. van Dam, D. Wang, J. Nieplocha,
                        E. Apra, T.L. Windus, W.A. de Jong
                 "NWChem: a comprehensive and scalable open-source
                  solution for large scale molecular simulations"
                      Comput. Phys. Commun. 181, 1477 (2010)
                           doi:10.1016/j.cpc.2010.04.018

                                      AUTHORS
                                      -------
          E. Apra, E. J. Bylaska, W. A. de Jong, N. Govind, K. Kowalski,
       T. P. Straatsma, M. Valiev, H. J. J. van Dam, D. Wang, T. L. Windus,
        J. Hammond, J. Autschbach, K. Bhaskaran-Nair, J. Brabec, K. Lopata,
    S. A. Fischer, S. Krishnamoorthy, M. Jacquelin, W. Ma, M. Klemm, O. Villa,
      Y. Chen, V. Anisimov, F. Aquino, S. Hirata, M. T. Hackler, V. Konjkov,
            D. Mejia-Rodriguez, T. Risthaus, M. Malagoli, A. Marenich,
   A. Otero-de-la-Roza, J. Mullin, P. Nichols, R. Peverati, J. Pittner, Y. Zhao,
        P.-D. Fan, A. Fonari, M. J. Williamson, R. J. Harrison, J. R. Rehr,
      M. Dupuis, D. Silverstein, D. M. A. Smith, J. Nieplocha, V. Tipparaju,
    M. Krishnan, B. E. Van Kuiken, A. Vazquez-Mayagoitia, L. Jensen, M. Swart,
      Q. Wu, T. Van Voorhis, A. A. Auer, M. Nooijen, L. D. Crosby, E. Brown,
      G. Cisneros, G. I. Fann, H. Fruchtl, J. Garza, K. Hirao, R. A. Kendall,
      J. A. Nichols, K. Tsemekhman, K. Wolinski, J. Anchell, D. E. Bernholdt,
      P. Borowski, T. Clark, D. Clerc, H. Dachsel, M. J. O. Deegan, K. Dyall,
    D. Elwood, E. Glendening, M. Gutowski, A. C. Hess, J. Jaffe, B. G. Johnson,
     J. Ju, R. Kobayashi, R. Kutteh, Z. Lin, R. Littlefield, X. Long, B. Meng,
      T. Nakajima, S. Niu, L. Pollack, M. Rosing, K. Glaesemann, G. Sandrone,
      M. Stave, H. Taylor, G. Thomas, J. H. van Lenthe, A. T. Wong, Z. Zhang.

 Total times  cpu:       18.9s     wall:       19.0s
