

 Parallel Execution: Process Information
 ==============================================================================
 Rank   Node Name                              NodeID   MyNodeRank  NodeMaster
    0   macbookproeric2018.home                   0          0          0
    1   macbookproeric2018.home                   0          1         -1
    2   macbookproeric2018.home                   0          2         -1
    3   macbookproeric2018.home                   0          3         -1
    4   macbookproeric2018.home                   0          4         -1
    5   macbookproeric2018.home                   0          5         -1
    6   macbookproeric2018.home                   0          6         -1
    7   macbookproeric2018.home                   0          7         -1
    8   macbookproeric2018.home                   0          8         -1
    9   macbookproeric2018.home                   0          9         -1
 ==============================================================================


May use up to 17578MB of RAM as shared memory on node 0

 *******************************************************************************
 *                                                                             *
 *  --------------------------------                                           *
 *   Amsterdam Modeling Suite (AMS)              2024.102                      *
 *  --------------------------------                                           *
 *                                               r122055 2024-06-07            *
 *                                                                             *
 *                                                                             *
 *                              =================                              *
 *                              |               |                              *
 *                              |     A M S     |                              *
 *                              |               |                              *
 *                              =================                              *
 *                                                                             *
 *                                                                             *
 *   Online information and documentation:  https://www.scm.com/support/       *
 *   E-mail:  support@scm.com   info@scm.com                                   *
 *                                                                             *
 *   Scientific publications using AMS results must be properly referenced     *
 *   See the User Manuals (or the web site) for recommended citations          *
 *   The terms and conditions of the End User License Agreement apply to       *
 *   the use of AMS, https://www.scm.com/license-terms/                        *
 *                                                                             *
 **********************  x86_64_darwin_intel / openmpi  ************************
 
 Licensed to: Prof. Eric HENON / Institut de Chimie Moléculaire de Reims / Reims / FRANCE 2024-07-19 18:58:06
 SCM User ID: u27163
  
 AMS 2024.102  RunTime: Aug16-2024 11:58:22  ShM Nodes: 1  Procs: 10

 AMS jobname: ams
 AMS jobid  : 540830912

 Start   directory: /Users/henon1/0testJobs/2_ChemistrySofts/4_ADF/5_BimolReaction/2ex_vtst/1_Reactants/2_H/tmp.henon1.6585.0.noindex/
 Results directory: /Users/henon1/0testJobs/2_ChemistrySofts/4_ADF/5_BimolReaction/2ex_vtst/1_Reactants/2_H/h.results/
 Scratch directory: /tmp/amstmp_ams_kid0.540830912/


 Communication costs MPI_COMM_WORLD:      1.023 usec per message,   0.0102 usec per 8-byte item
 Communication costs for intra-node:      0.790 usec per message,   0.0152 usec per 8-byte item

 RNG seed: -1608026184 2066543038 1012705404 -97455031 -703122379 340645254 -528082371 -1747204816



                     *************************************************************************
                     *  ADF 2024.102  RunTime: Aug16-2024 11:58:24  ShM Nodes: 1  Procs: 10  *
                     *************************************************************************
  

       ****************************
       * SINGLE POINT CALCULATION *
       ****************************
 
--------
Geometry
--------
Formula: H
Atoms
  Index Symbol   x (angstrom)   y (angstrom)   z (angstrom)
      1      H     0.00000000     0.00000000     0.00000000
 
Total System Charge             0.00000
 
 
----------------
ADF Engine Input
----------------
 
 Basis
 Core None
 End
 SpinPolarization 1
 XC
 Hybrid B3LYP
 End
 Relativity
 Level None
 End
 Unrestricted Yes
 

 Title: *** (NO TITLE) ***

 *** adf ***



 ===========================
 A T T A C H E D   F I L E S
 ===========================
  



 ===============================
 M O D E L   P A R A M E T E R S
 ===============================
  
 DENSITY FUNCTIONAL POTENTIAL (scf)
    Hybrid:                            B3LYP                                   == Not Default ==

 SPIN  (restricted / unrestr.)
    Molecule:                          UNrestricted                            == Not Default ==
    Fragments:                         Restricted                               

 OTHER ASPECTS
    Relativistic Corrections:          ---                                     == Not Default ==

    Nuclear Charge Density Model:      Point Charge Nuclei                      
    Core Treatment:                    Frozen Orbital(s)                        

    Hyperfine or Zeeman Interaction:   ---                                      


 Fragment File(s)
 ----------------
 H:
         file : /Users/henon1/0testJobs/2_ChemistrySofts/4_ADF/5_BimolReaction/2ex_vtst/1_Reactants/2_H/h.results/t21.3F46D696.H
         jobid: 0
         title: Hydrogen (DZ)



 ===============
 G E O M E T R Y  ***  Single Atom  ***
 ===============
  

 ATOMS
 =====                            X Y Z                    CHARGE
                                (Angstrom)             Nucl     +Core       At.Mass
                       --------------------------    ----------------       -------
    1  H               0.0000    0.0000    0.0000      1.00      1.00        1.0078


 FRAGMENTS
 =========                                     Atoms in this Fragment     Cart. coord.s (Angstrom)
                                               -------------------------------------------------------
    1  H                                                 1  H            0.0000    0.0000    0.0000



 =====================================
 S Y M M E T R Y ,   E L E C T R O N S
 =====================================
  
 Symmetry: ATOM

 Irreducible Representations, including subspecies
 -------------------------------------------------
 S
 P:x  P:y  P:z
 D:z2  D:x2-y2  D:xy  D:xz  D:yz
 F:z3  F:z  F:xyz  F:z2x  F:z2y  F:x  F:y

 Symmetry is NOT used when fitting density


 Configuration of Valence Electrons
 ==================================
 ( determined in the SCF procedure )

 Total:   1 (Spin-A)  + 0 (Spin-B)

 Net Charge: 0 (Nuclei minus Electrons)
 Spin polar: 1 (Spin_A minus Spin_B electrons)

 Aufbau principle for MO occupations will be applied through SCF cycle no.     150
 Thereafter, the program will assign electrons to MOs that are spatially
 similar to the occupied MOs in a "reference" cycle ("KeepOrbitals").
 The reference cycle is always the PREVIOUS cycle: it will evolve with
 the SCF procedure.
1
 ***************************************************************************************************



                                      ****************************************
                                      *  B U I L D : (Fragments, Functions)  *
                                      ****************************************
  



 =======
 S F O s  ***  (Symmetrized Fragment Orbitals)  ***
 =======
  
 SFOs are linear combinations of (valence) Fragment Orbitals (FOs), such that the SFOs transform as the
 irreducible representations of the (molecular) symmetry group. Each SFO is therefore characterized by
 an irrep of the molecule and by a few (or only one) generating FOs.
 The SFOs constitute a symmetry-adapted basis for the Fock matrix. The MO eigenvector coefficients in
 this basis provide a direct interpretation of the MOs in terms of Frontier Orbital Theory.

 The SFOs are combined with auxiliary Core Functions (CFs) to ensure orthogonalization on the (frozen)
 Core Orbitals (COs). The Core-orthogonalized SFOs (CSFOs) constitute the true Fock basis.

 The FOs, and hence also the (C)SFOs are combinations of the elementary basis functions (BAS). The basis
 functions that participate in the description of the SFOs depend on the irrep. The indices of the
 involved functions are printed below for each irrep.
 (The complete list of primitive basis functions is printed in another section)

 Total nr. of (C)SFOs (summation over all irreps) :     2

 NOTE: a (C)SFO that is defined as a combination of more than one FO is usually NOT normalized.



                                       === S ===
 Nr. of SFOs :    2
 Cartesian basis functions that participate in this irrep (total number =     2) :
      1     2

    SFO  (index         Fragment          Generating    Expansion in Fragment Orbitals
  indx  incl.CFs)   Occup   Orb.Energy   FragmentType  Coeff.   Orbital     on Fragment
 --------------------------------------------------------------------------------------
     1       1      1.000      -0.244 au  H             1.00      1 S               1
                        (      -6.637 eV)
     2       2       --         0.419 au  H             1.00      2 S               1
                        (      11.415 eV)



 ================================
 (Slater-type)  F U N C T I O N S  ***  (Basis and Fit)  ***
 ================================
  

 Atom Type    1  (H)
 ==============

 Valence Basis Sets:   2
 -----------------------
   1 S    0.760000
   1 S    1.280000

 Charge Fitting Sets (for the computation of the Coulomb Potential):  11
 -----------------------------------------------------------------------
   1 S    3.160000
   1 S    2.090000
   1 S    1.380000
   2 S    1.500000
   2 P    4.000000
   2 P    2.650000
   2 P    1.750000
   3 D    4.000000
   3 D    2.500000
   4 F    3.000000
   5 G    4.000000


 BAS: List of all Elementary Cartesian Basis Functions
 =====================================================

 The numbering in the list below (to the right of the function characteristics) is referred
 to in print-outs of MO eigenvectors and Mulliken populations in the BAS representation
 (as contrasted to the SFO representation).

 Notes:
 1. The functions are characterized by a polynomial prefactor (powers of x,y,z and r) and
    an exponential decay factor alpha.
 2. Since the basis sets are specific for an atom TYPE, the individual functions occur on
    all atoms of that type.
 3. The word 'Core' in the left margin signals that it is a Core Function (CF) : not a
    degree of freedom in the valence set, but only used to ensure orthogonalization of
    the other valence basis functions on the frozen Core Orbitals.


 (power of) X  Y  Z  R     Alpha  on Atom
            ==========     =====     ==========

 H                                    1
                                  ---------------------------------------------------------------------------
            0  0  0  0     0.760      1
            0  0  0  0     1.280      2

 Total number of charge fitting functions (nprimf)        50
 Total number of Cartesian basis functions (naos)          2
 Total number of Cartesian core functions  (ncos)          0

1
 ***************************************************************************************************



                                              ***********************
                                              *  T E C H N I C A L  *
                                              ***********************
  



 =============================================================
 P A R A L L E L I Z A T I O N  and  V E C T O R I Z A T I O N
 =============================================================
  
 Nr of parallel processes:                               10
 Maximum vector length in NumInt loops:                 128



 =====================
 S C F   U P D A T E S
 =====================
  
 Max. nr. of cycles:                               300
 Convergence criterion:                              0.0000010000
   secondary criterion:                              0.0010000000

 Mix parameter (when DIIS does not apply):           0.2000000000
 Mixed ADIIS+SDIIS will be used                  
    Max number of expansion vectors:                10
    Pure ADIIS when Max([F,P]) is above              0.1000000000
    Pure SDIIS when Max([F,P]) is below              0.0010000000
 Automatic ElectronSmearing (in case of problematic SCF convergence) disabled



 =================
 P R E C I S I O N  ***  (General: NumInt, NeglectFunctionTails, ...)  ***
 =================
  

 NumInt:           Target precision:                 4.0000000000
 -------           Initial precision:                4.0000000000
                   Min. precision (optimization):    4.0000000000

 Neglect Functions:          Basis functions:        0.1000000000E-05
 ------------------          Fit functions:          0.1000000000E-05



 ===========================
 L I N E A R   S C A L I N G
 ===========================
  

 Cut-off radii density fit:                        0.1000000000E-07
 Overlap cut-off criterion AO matrix elements:     0.1000000000E-05
 Cut-offs for Coulomb potential and fitted density:0.1000000000E-07
 Cut-off criterion for Coulomb multipole terms:    0.1000000000E-07
 Progressive Convergence parameter:                 0.000000000    
1
 ***************************************************************************************************



                                            ***************************
                                            *  C O M P U T A T I O N  *
                                            ***************************
  

 Number of elements of the density matrix on this node (used, total):         3         3



 ===========================================
 Numerical Integration : Fuzzy Cells (Becke)
 ===========================================
  
 Becke grid quality: NORMAL         
  
 Lebedev angular grid order:             min:  11 max:  23
 Nr. of radial points:                   min:  46 max:  46

 Total nr. of points:       1748
 Nr. of blocks:               16
 Block length:               114
 Nr. of dummy points:         76


 Test of Precision of the Numerical Integration Grid
 ===================================================

 Integral of the Total Core Density:                   0.00000000000000



 ========================
 Density Fitting (zlmFit)
 ========================
  
 ZlmFit Fit Quality: NORMAL         
  
 Max L-expansion:                        min:   4 max:   4
 Nr. of radial interpolation points:     min:  36 max:  36



 ======================
 RI Hartree-Fock Scheme
 ======================
  
 Fit Set Quality     : NORMAL
 Threshold Quality   : NORMAL
 Integration Quality : NORMAL
 Fit Generation Method : AUTO
 Response Quality    : DEFAULT
 Is Range Separated  :  F
 
 RIHartreeFock Dependency: number of modified vectors:           0



 =====
 S C F  ***  ScaSCF  ***
 =====
  
 Initial density matrix is calculated as sum of fragments

 CYCLE    1
 SCF Error: norm([F,P])=      0.000040409921, max([F,P])=      0.000020204960
 ***** SPIN 1 *****
 orbitals (Q,E):
 ---------------
 S :1...2            ( 1.00    -0.2440)  ( 0.00     0.4194)
 ***** SPIN 2 *****
 orbitals (Q,E):
 ---------------
 S :1...2            ( 0.00    -0.2440)  ( 0.00     0.4194)
  
 Spin polar: 1 (Spin_A minus Spin_B electrons)

 CYCLE    2
 SCF Error: norm([F,P])=      0.055611026092, max([F,P])=      0.039322933658
 ***** SPIN 1 *****
 orbitals (Q,E):
 ---------------
 S :1...2            ( 1.00    -0.3329)  ( 0.00     0.3820)
 ***** SPIN 2 *****
 orbitals (Q,E):
 ---------------
 S :1...1            ( 0.00    -0.0463)
  
 Spin polar: 1 (Spin_A minus Spin_B electrons)

 CYCLE    3
  SDIIS (wt  0.000): -0.0058  1.0058
 A-DIIS (wt  1.000):  0.0000  1.0000
  DIIS coefficients:  0.0000  1.0000
 SCF Error: norm([F,P])=      0.000323023667, max([F,P])=      0.000228412225
 ***** SPIN 1 *****
 orbitals (Q,E):
 ---------------
 S :1...2            ( 1.00    -0.3211)  ( 0.00     0.3916)
 ***** SPIN 2 *****
 orbitals (Q,E):
 ---------------
 S :1...1            ( 0.00    -0.0325)
  
 Spin polar: 1 (Spin_A minus Spin_B electrons)

 CYCLE    4
  SDIIS (wt  1.000): -0.0015  1.0015
  DIIS coefficients: -0.0015  1.0015
 SCF Error: norm([F,P])=      0.000000497172, max([F,P])=      0.000000351554
 ***** SPIN 1 *****
 orbitals (Q,E):
 ---------------
 S :1...2            ( 1.00    -0.3210)  ( 0.00     0.3917)
 ***** SPIN 2 *****
 orbitals (Q,E):
 ---------------
 S :1...1            ( 0.00    -0.0324)
  
 Spin polar: 1 (Spin_A minus Spin_B electrons)

 SCF CONVERGED

 CYCLE    5
1
 ***************************************************************************************************



                                                *******************
                                                *  R E S U L T S  *
                                                *******************
  
  
 Hartree-Fock exchange energy:  -0.304423662899576     
 *** Using FIT density in Focky
  SDIIS (wt  1.000): -0.0002  1.0002
  DIIS coefficients: -0.0002  1.0002
 SCF Error: norm([F,P])=      0.000000000077, max([F,P])=      0.000000000055


                                   ***** SPIN 1 *****

 Orbital Energies, per Irrep and Spin:
 ======================================
                        Occup              E (au)              E (eV)       Diff (eV) with prev. cycle
                        -----      --------------------        ------       --------------------------
 S
               1        1.000     -0.32103792369372E+00        -8.736               1.39E-09
               2        0.000      0.39167499583534E+00        10.658
  
 HOMO :        1 S                -0.32103792369372E+00
 LUMO :        2 S                 0.39167499583534E+00
  


                                   ***** SPIN 2 *****

 Orbital Energies, per Irrep and Spin:
 ======================================
                        Occup              E (au)              E (eV)       Diff (eV) with prev. cycle
                        -----      --------------------        ------       --------------------------
 S
               1        0.000     -0.32449165289612E-01        -0.883
               2        0.000      0.64290965823505E+00        17.494
  
 LUMO :        1 S                -0.32449165289612E-01
  


 Orbital Energies, both Spins
 ========================================

 Irrep        no.  (spin)   Occup              E (au)                E (eV)
 ---------------------------------------------------------------------------
 S             1     A       1.00       -0.32103792369372E+00        -8.7359
 S             1      B      0.00       -0.32449165289612E-01        -0.8830
 S             2     A       0.00        0.39167499583534E+00        10.6580
 S             2      B      0.00        0.64290965823505E+00        17.4945
  
 Spin polar: 1 (Spin_A minus Spin_B electrons)


 All Electron Calculation, thus no Orbital Energies of the Core Orbitals are calculated


 Fit test: (difference of exact and fit density, squared integrated, result summed over spins)
         Sum-of-Fragments:                             0.00000000000002
         Orthogonalized Fragments:                     0.00000000033660
         SCF:                                          0.00000000096161



 ==========================
 Electron Density at Nuclei
 ==========================
  
 The electron density is calculated at points on a small sphere around the center of a nucleus.
 The printed electron density is the average electron density on these points.
 The radius of the sphere is the printed approximate finite nuclear radius.

         Atom        Nuclear Radius (Angstrom)             Electron Density (a.u.)
         ----        -------------------------             -----------------------
     1)   H                 0.0000181514                                0.34733



 =======================================
 M U L L I K E N   P O P U L A T I O N S
 =======================================
  
 The survey below gives for each atom:
 a) the total charge (Z minus electrons)
 b) the net spin polarization (nr of electrons spin-A minus spin-B)
 c) for each spin the atomic electron valence density (integrated) per L-value.

 Atom              Charge    Spin density          S         P         D         F
 ----              ------    ------------       ------    ------    ------    ------
 1 H               0.0000          1.0000   A:  1.0000    0.0000    0.0000    0.0000
                                            B:  0.0000    0.0000    0.0000    0.0000

 Populations of individual BAS functions
 ----------------------------------------
 1 H            0.5479  0.4521
         B:     0.0000  0.0000

 Gross Charges per Atom (Z minus electrons)
 ==========================================
             0.0000
 Net Total:  0.00000000


 Atom-Atom Population Matrix (off-diagonal elements not doubled)
 ===============================================================


                                   ***** SPIN 1 *****

     1 :     1.0000

                                   ***** SPIN 2 *****

     1 :     0.0000



 =================================================
 H I R S H F E L D   C H A R G E   A N A L Y S I S
 =================================================
  
 For each fragment: the (numerical) integral of rho(scf) * rho(fragment)/rho(sum-of-fragments)
 (nuclear charges are included, electrons are counted negative)

 The fragments and their ordering are defined in the early G E O M E T R Y output section.
 If you use single-atom fragments, this usually implies that all atoms of the same
 chemical type are grouped together. This may not be the order in which you listed them
 in the input file!

    1  H                        -0.0000

 Sum of these charges (accuracy NumInt/Tails) =          -0.00000000



 =============================
 V O R O N O I   C H A R G E S
 =============================
  
 For each atom: the (numerical) integral of the total electronic charge density in its Voronoi cell,
 i.e. the region of space that is closer to that atom than to any other atom.
 (cf. Wigner-Seitz cells in crystals)

 Within the Voronoi cell the subintegrals over the atomic sphere and the remaining part are evaluated
 separately to give the numbers of electrons (negative charge) in these regions.
 The net total charge in the cell (including the nuclear charge) is also given.

 Values are provided for
    a) the Initial (sum-of-fragments) density
    b) the Orthogonalized-Fragments density
    c) the SCF density
    d) the Voronoi Deformation Density (VDD): the difference SCF-Initial for the complete atomic cell


  Atom                Initial                    OrthFrag                   SCF
             Sphere RestCell NetTotal   Sphere RestCell NetTotal   Sphere RestCell NetTotal      VDD
 -----       ------------------------   ------------------------   ------------------------    -----
    1 H      -1.000   -0.000   -0.000   -1.000   -0.000   -0.000   -1.000   -0.000   -0.000    0.000
 ---------------------------------------------------------------------------------------------------
 Total NetCharge:              -0.000                     -0.000                     -0.000    0.000
 (accuracy NumInt/Tails)

 Remark: the 'NetTotal' Voronoi charges often do not match the Mulliken and/or Hirshfeld charges very
 well. This is caused by the fact that chemically different atoms are not treated in accordance with
 their relative sizes. (Voronoi cells are defined by boundary planes halfway between the atoms.)
 However, the CHANGES in charge, comparing 'Initial' to 'SCF' for instance, do give a fair indication
 of the flow of charge caused by the relaxation from sum-of-fragments to self-consistency.

 Warning: the absolute accuracy of the VDD charges obtained using the Fuzzy Cells (Becke) integration
 scheme is much poorer than the one obtained with an 'equivalent' Voronoi integration grid. 



 =================================================================
 M U L T I P O L E   D E R I V E D   C H A R G E   A N A L Y S I S
 =================================================================

 This charge analysis uses the atomic multipoles (obtained from the fitted density) up to some level X,
 and reconstructs these multipoles exactly (up to level X) by distributing charges over all atoms.
 This is achieved by using Lagrange multipliers and a weight function to keep the multipoles local.

 Dummy atoms can be included (by setting INCDUM in MDC-block to 1) to obtain a fractional charge.
 This is generally useful and necessary only for small symmetrical molecules, when there are not
 enough degrees of freedom to reconstruct the multipoles.

 Since the atomic multipoles are reconstructed up to level X,
 the molecular multipoles are represented also up to level X.
 The recommended level is to reconstruct up to quadrupole : -> MDC-q charges.

 See: M. Swart, P.Th. van Duijnen, J.G. Snijders, J.Comput.Chem., (2001), p. 79-88.

 ------------------------------------------------------------------------ 
 Atomic electronic multipole moments from SCF equations (a.u.) for spin A
 ------------------------------------------------------------------------ 

   atom        charge        dip-x     dip-y     dip-z      quad-xx   quad-xy   quad-xz   quad-yy   quad-yz   quad-zz
 --------------------------------------------------------------------------------------------------------------------
    1 H     -0.500000    -0.000000  0.000000 -0.000000    -0.000000  0.000000  0.000000 -0.000000  0.000000  0.000000

 ------------------------------------------------------------------------ 
 Atomic electronic multipole moments from SCF equations (a.u.) for spin B
 ------------------------------------------------------------------------ 

   atom        charge        dip-x     dip-y     dip-z      quad-xx   quad-xy   quad-xz   quad-yy   quad-yz   quad-zz
 --------------------------------------------------------------------------------------------------------------------
    1 H      0.500000     0.000000  0.000000  0.000000     0.000000  0.000000  0.000000  0.000000  0.000000  0.000000

 ----------------------------------------------------- 
 MDC atomic charges (includes spinA + spinB electrons)
 ----------------------------------------------------- 

 The MDC-m charges are just the Monopole terms in the multipole expansion, while for the MDC-d charges
 also the Dipoles are reconstructed. The usually preferred charges are the MDC-q charges.
 These reconstruct the Monopoles, Dipoles and Quadrupoles (both atomic AND molecular).

 Given here are the atomic charges of both spins added. These should be compared
 to the values from a "normal" RESTRICTED calculation.

        Atom    Level:     MDC-m        MDC-d        MDC-q
 ---------------------------------------------------------
     1     H            0.000000     0.000000     0.000000

 -------------------------------- 
 MDC spin density (spinA - spinB)
 -------------------------------- 
 Reported here are the the number of Alpha-electrons minus the number of Beta-electrons
 per atom, which usually are regarded as spin densities.

        Atom    Level:     MDC-m        MDC-d        MDC-q
 ---------------------------------------------------------
     1     H            1.000000     1.000000     1.000000

 --------------------------------------------- 
 Represented total molecular multipole moments
 --------------------------------------------- 

 Given here are the Molecular multipole moments from the atomic charges, and from the Fit Density.
 Note that the atomic charges represent the latter, NOT the ones from the Exact density.

 Reported here are the Molecular multipole moments of both spins added.
 They should be compared to the values from a "normal" RESTRICTED calculation.

            Q (a.u.)             Dipole moment (Debye)                                          Quadrupole moment (a.u.)
                                 x         y         z              xx        xy        xz        yy        yz        zz
------------------------------------------------------------------------------------------------------------------------
MDC-m         0.0000        0.0000    0.0000    0.0000          0.0000    0.0000    0.0000    0.0000    0.0000    0.0000
MDC-d         0.0000        0.0000    0.0000    0.0000          0.0000    0.0000    0.0000    0.0000    0.0000    0.0000
MDC-q         0.0000        0.0000    0.0000    0.0000          0.0000    0.0000    0.0000    0.0000    0.0000    0.0000
 
Fit.Dens.     0.0000       -0.0000    0.0000   -0.0000         -0.0000    0.0000    0.0000   -0.0000    0.0000    0.0000



 ==========
 S**2 value  ***  see also R. Bulo et al., J.Am.Chem.Soc., 124 (2002) 13903-13910, note (29)  ***
 ==========
  
                                       exact      expectation value

 Total S2 (S squared)                  0.75000             0.75000



 =============
 Dipole Moment  ***  (Debye)  ***
 =============
  
 Vector   :         0.00000000      0.00000000      0.00000000
 Magnitude:         0.00000000

 This molecular dipole moment is calculated with analytic integration



 =========================================
 Quadrupole Moment (Buckingham convention)  ***  (a.u.)  ***
 =========================================
  
      quad-xx        quad-xy        quad-xz        quad-yy        quad-yz        quad-zz
      0.00000000     0.00000000     0.00000000     0.00000000     0.00000000     0.00000000

 This molecular quadrupole moment is calculated with analytic integration
1



 ===========================
 B O N D I N G   E N E R G Y  ***  (decomposition)  ***
 ===========================
  
*** IMPORTANT NOTE ***

The bond energy is computed as an energy difference between molecule and
fragments. In particular when the fragments are single atoms, they are usually
computed as SPHERICALLY SYMMETRIC and SPIN-RESTRICTED. Obviously, this usually
does NOT represent the true atomic groundstate.

To obtain the 'real' bond energy, (atomic) correction terms must be applied
for the true (multiplet) fragment ground state. See ref: E.J.Baerends,
V.Branchadell, M.Sodupe, Chem.Phys.Lett.265 (1997) 481

General theoretical background on the bond energy decomposition scheme used
here (Morokuma-Ziegler) can be found in the review paper:
F.M. Bickelhaupt and E.J. Baerends,
"Kohn-Sham Density Functional Theory: Predicting and Understanding Chemistry"
In: Rev. Comput. Chem.; Lipkowitz, K. B. and Boyd, D. B., Eds.;
Wiley-VCH: New York, 2000, Vol. 15, 1-86.

Symbols used in the Bickelhaupt-Baerends (BB) paper are given below to make
the direct connection to that paper, where detailed explanations can be found
on the meaning of the various terms.


                                                   hartree              eV         kcal/mol           kJ/mol
                                      --------------------     -----------       ----------      -----------
  pauli hf:                              0.000000000000000          0.0000             0.00             0.00
  elstat hf:                             0.000000000000416          0.0000             0.00             0.00

Pauli Repulsion
  Kinetic (Delta T^0):                   0.000000000000000          0.0000             0.00             0.00
  Delta V^Pauli Coulomb:                -0.000000010762788         -0.0000            -0.00            -0.00
  Delta V^Pauli Hybrid-X:                0.000000000000000          0.0000             0.00             0.00
  Delta V^Pauli Hybrid-C:                0.000000000000000          0.0000             0.00             0.00
  Delta V^Pauli HF-Exchange:             0.000000000000416          0.0000             0.00             0.00
                                      --------------------     -----------       ----------      -----------
  Total Pauli Repulsion:                -0.000000010762371         -0.0000            -0.00            -0.00
 (Total Pauli Repulsion =
  Delta E^Pauli in BB paper)

Steric Interaction
  Pauli Repulsion (Delta E^Pauli):      -0.000000010762371         -0.0000            -0.00            -0.00
  Electrostatic Interaction:             0.000000000000000          0.0000             0.00             0.00
 (Electrostatic Interaction =
  Delta V_elstat in the BB paper)
                                      --------------------     -----------       ----------      -----------
  Total Steric Interaction:             -0.000000010762371         -0.0000            -0.00            -0.00
 (Total Steric Interaction =
  Delta E^0 in the BB paper)

Orbital Interactions
  S:                                    -0.053758504009589         -1.4628           -33.73          -141.14
  HF orbital correction:                 0.000000000005853          0.0000             0.00             0.00
                                      --------------------     -----------       ----------      -----------
  Total Orbital Interactions:           -0.053758504003735         -1.4628           -33.73          -141.14

Alternative Decomposition Orb.Int.
  Kinetic:                               0.064964885219245          1.7678            40.77           170.57
  Coulomb:                              -0.046815434990431         -1.2739           -29.38          -122.91
  XC+HF:                                -0.071907954232549         -1.9567           -45.12          -188.79
  XC only:                              -0.039427351452599         -1.0729           -24.74          -103.52
  HF Orbital:                           -0.032480602779951         -0.8838           -20.38           -85.28
                                      --------------------     -----------       ----------      -----------
  Total Orbital Interactions:           -0.053758504003735         -1.4628           -33.73          -141.14

  Residu (E=Steric+OrbInt+Res):         -0.000000058777444         -0.0000            -0.00            -0.00

Total Bonding Energy:                   -0.053758573543550         -1.4628           -33.73          -141.14


Summary of Bonding Energy (energy terms are taken from the energy decomposition above)
======================================================================================

  Electrostatic Energy:                  0.000000000000000          0.0000             0.00             0.00
  Kinetic Energy:                        0.064964885219245          1.7678            40.77           170.57
  Coulomb (Steric+OrbInt) Energy:       -0.046815504530662         -1.2739           -29.38          -122.91
  XC Energy:                            -0.071907954232133         -1.9567           -45.12          -188.79
                                      --------------------     -----------       ----------      -----------
  Total Bonding Energy:                 -0.053758573543550         -1.4628           -33.73          -141.14


Correction terms (incorporated in energies above; only for test purposes):

1. Indication of fit-quality: 1st-order fit-correction used in the energy (hartree):   0.0000007918
2. Electrostatic (Fit correction):   0.0000000000
1



 =======================================================
 S F O   P O P U L A T I O N S ,   M O   A N A L Y S I S
 =======================================================
  
 A Mulliken population analysis is performed on (input-)selected MOs. All populations refer to SFOs.
 BAS populations may have been printed directly after the SCF part.



                                   ***** SPIN 1 *****



                                       === S ===


 SFO contributions (%) per orbital
 (multiplication by the orbital occupation yields the SFO Gross Populations)

 Orb.:        1      2
 occup:     1.00   0.00
 CF+SFO     ----   ----
 ------
      1:   99.69   0.31
      2:    0.31  99.69


 Summation over all MOs, multiplied by occupation: Total SFO Gross Populations in this Irrep
 ===========================================================================================

     1.00    0.00



                                   ***** SPIN 2 *****



                                       === S ===


 SFO contributions (%) per orbital
 (multiplication by the orbital occupation yields the SFO Gross Populations)

 Orb.:        1      2
 occup:     0.00   0.00
 CF+SFO     ----   ----
 ------
      1:   96.35   3.65
      2:    3.65  96.35


 Summation over all MOs, multiplied by occupation: Total SFO Gross Populations in this Irrep
 ===========================================================================================

     0.00    0.00



 List of selected MOs, ordered by energy, with the most significant SFO gross populations
 ========================================================================================

 Each percentage contribution in the table below corres ponds to the indicated SFO.
 In general, a SFO may be a linear combination of several Fragment Orbitals on the same,
 or on symmetry-related Fragments. Only the first 'member' of such a combination is
 specified here. A full definition of all SFOs is given in an earlier part of the output.
 The numbering of the SFOs in this table does NOT include the Core Orbitals, and starts
 from one for each symmetry representation, as in the SFO definition list earlier.


                                       *** SPIN 1 ***


       E(eV)  Occ       MO           %     SFO (first member)   E(eV)  Occ   Fragment
 -------------------------------------------------------------------------------------

      -8.736  1.00     1 S         99.69%     1 S              -6.637  1.00     1 H
                                    0.31%     2 S              11.415  0.00     1 H
      10.658  0.00     2 S         99.69%     2 S              11.415  0.00     1 H
                                    0.31%     1 S              -6.637  1.00     1 H


                                       *** SPIN 2 ***


       E(eV)  Occ       MO           %     SFO (first member)   E(eV)  Occ   Fragment
 -------------------------------------------------------------------------------------

      -0.883  0.00     1 S         96.35%     1 S              -6.637  1.00     1 H
                                    3.65%     2 S              11.415  0.00     1 H

 Energy gradients wrt nuclear displacements
 ==========================================

     Atom      Cartesian (a.u./angstrom)
                 X         Y         Z
 ----------------------------------------
     1 H     0.000000  0.000000  0.000000
 ----------------------------------------



 =======================================================================
 Electrostatic potential at the Nuclei due to electrons and other nuclei
 =======================================================================
  
         Atom                  Potential
         ----                  ---------
     1)   H                   0.99496563
 Mulliken charges used for AMS results%charges...
 Continuous PES requested. Disabling symmetry...
 *** adf_CentralGeo ***



 ===========================
 A T T A C H E D   F I L E S
 ===========================
  
 Restart/tmp/amstmp_ams_kid0.540830912/adf.rkf*** adf ***



 ===============================
 M O D E L   P A R A M E T E R S
 ===============================
  
 DENSITY FUNCTIONAL POTENTIAL (scf)
    Hybrid:                            B3LYP                                   == Not Default ==

 SPIN  (restricted / unrestr.)
    Molecule:                          UNrestricted                            == Not Default ==
    Fragments:                         Restricted                               

 OTHER ASPECTS
    Relativistic Corrections:          ---                                     == Not Default ==

    Nuclear Charge Density Model:      Point Charge Nuclei                      
    Core Treatment:                    Frozen Orbital(s)                        

    Hyperfine or Zeeman Interaction:   ---                                      



 ===============
 G E O M E T R Y  ***  Single Atom  ***
 ===============
  

 ATOMS
 =====                            X Y Z                    CHARGE
                                (Angstrom)             Nucl     +Core       At.Mass
                       --------------------------    ----------------       -------
    1  H               0.0000    0.0000    0.0000      1.00      1.00        1.0078


 FRAGMENTS
 =========                                     Atoms in this Fragment     Cart. coord.s (Angstrom)
                                               -------------------------------------------------------
    1  H                                                 1  H            0.0000    0.0000    0.0000



 =====================================
 S Y M M E T R Y ,   E L E C T R O N S
 =====================================
  
 Symmetry: NOSYM

 Irreducible Representations, including subspecies
 -------------------------------------------------
 A

 Symmetry is NOT used when fitting density


 Configuration of Valence Electrons
 ==================================
 ( determined in the SCF procedure )

 Total:   1 (Spin-A)  + 0 (Spin-B)

 Net Charge: 0 (Nuclei minus Electrons)
 Spin polar: 1 (Spin_A minus Spin_B electrons)

 Aufbau principle for MO occupations will be applied through SCF cycle no.     150
 Thereafter, the program will assign electrons to MOs that are spatially
 similar to the occupied MOs in a "reference" cycle ("KeepOrbitals").
 The reference cycle is always the PREVIOUS cycle: it will evolve with
 the SCF procedure.
1
 ***************************************************************************************************



                                      ****************************************
                                      *  B U I L D : (Fragments, Functions)  *
                                      ****************************************
  

 Total nr. of (C)SFOs (summation over all irreps) :     2

 Specify PRINT SFO in the input file to get a full list

 Nr. of SFOs for ir.rep.           A :     2



 ================================
 (Slater-type)  F U N C T I O N S  ***  (Basis and Fit)  ***
 ================================
  

 Atom Type    1  (H)
 ==============

 Valence Basis Sets:   2
 -----------------------
   1 S    0.760000
   1 S    1.280000

 Charge Fitting Sets (for the computation of the Coulomb Potential):  11
 -----------------------------------------------------------------------
   1 S    3.160000
   1 S    2.090000
   1 S    1.380000
   2 S    1.500000
   2 P    4.000000
   2 P    2.650000
   2 P    1.750000
   3 D    4.000000
   3 D    2.500000
   4 F    3.000000
   5 G    4.000000


 BAS: List of all Elementary Cartesian Basis Functions
 =====================================================

 The numbering in the list below (to the right of the function characteristics) is referred
 to in print-outs of MO eigenvectors and Mulliken populations in the BAS representation
 (as contrasted to the SFO representation).

 Notes:
 1. The functions are characterized by a polynomial prefactor (powers of x,y,z and r) and
    an exponential decay factor alpha.
 2. Since the basis sets are specific for an atom TYPE, the individual functions occur on
    all atoms of that type.
 3. The word 'Core' in the left margin signals that it is a Core Function (CF) : not a
    degree of freedom in the valence set, but only used to ensure orthogonalization of
    the other valence basis functions on the frozen Core Orbitals.


 (power of) X  Y  Z  R     Alpha  on Atom
            ==========     =====     ==========

 H                                    1
                                  ---------------------------------------------------------------------------
            0  0  0  0     0.760      1
            0  0  0  0     1.280      2

 Total number of charge fitting functions (nprimf)        50
 Total number of Cartesian basis functions (naos)          2
 Total number of Cartesian core functions  (ncos)          0

1
 ***************************************************************************************************



                                              ***********************
                                              *  T E C H N I C A L  *
                                              ***********************
  



 =============================================================
 P A R A L L E L I Z A T I O N  and  V E C T O R I Z A T I O N
 =============================================================
  
 Nr of parallel processes:                               10
 Maximum vector length in NumInt loops:                 128



 =====================
 S C F   U P D A T E S
 =====================
  
 Max. nr. of cycles:                               300
 Convergence criterion:                              0.0000010000
   secondary criterion:                              0.0010000000

 Mix parameter (when DIIS does not apply):           0.2000000000
 Mixed ADIIS+SDIIS will be used                  
    Max number of expansion vectors:                10
    Pure ADIIS when Max([F,P]) is above              0.1000000000
    Pure SDIIS when Max([F,P]) is below              0.0010000000
 Automatic ElectronSmearing (in case of problematic SCF convergence) disabled



 =================
 P R E C I S I O N  ***  (General: NumInt, NeglectFunctionTails, ...)  ***
 =================
  

 NumInt:           Target precision:                 4.0000000000
 -------           Initial precision:                4.0000000000
                   Min. precision (optimization):    4.0000000000

 Neglect Functions:          Basis functions:        0.1000000000E-05
 ------------------          Fit functions:          0.1000000000E-05



 ===========================
 L I N E A R   S C A L I N G
 ===========================
  

 Cut-off radii density fit:                        0.1000000000E-07
 Overlap cut-off criterion AO matrix elements:     0.1000000000E-05
 Cut-offs for Coulomb potential and fitted density:0.1000000000E-07
 Cut-off criterion for Coulomb multipole terms:    0.1000000000E-07
 Progressive Convergence parameter:                 0.000000000    

 Number of elements of the density matrix on this node (used, total):         3         3



 ===========================================
 Numerical Integration : Fuzzy Cells (Becke)
 ===========================================
  
 Becke grid quality: NORMAL         
  
 Lebedev angular grid order:             min:  11 max:  23
 Nr. of radial points:                   min:  46 max:  46

 Total nr. of points:       2300
 Nr. of blocks:               23
 Block length:               100
 Nr. of dummy points:          0


 Test of Precision of the Numerical Integration Grid
 ===================================================

 Integral of the Total Core Density:                   0.00000000000000



 ========================
 Density Fitting (zlmFit)
 ========================
  
 ZlmFit Fit Quality: NORMAL         
  
 Max L-expansion:                        min:   4 max:   4
 Nr. of radial interpolation points:     min:  36 max:  36



 ======================
 RI Hartree-Fock Scheme
 ======================
  
 Fit Set Quality     : NORMAL
 Threshold Quality   : NORMAL
 Integration Quality : NORMAL
 Fit Generation Method : AUTO
 Response Quality    : DEFAULT
 Is Range Separated  :  F
 
 RIHartreeFock Dependency: number of modified vectors:           0



 =====
 S C F  ***  ScaSCF  ***
 =====
  
 Initial density matrix is taken from previous geometry

 CYCLE    1
  ***********************************************************
  ** : orbital data taken from :/tmp/amstmp_ams_kid0.540830912/adf.rkf
  ***********************************************************
 SCF Error: norm([F,P])=      0.000000000007, max([F,P])=      0.000000000005
 ***** SPIN 1 *****
 orbitals (Q,E):
 ---------------
 A :1...2            ( 1.00    -0.3210)  ( 0.00     0.3917)
 ***** SPIN 2 *****
 orbitals (Q,E):
 ---------------
 A :1...2            ( 0.00    -0.0324)  ( 0.00     0.6429)
  
 Spin polar: 1 (Spin_A minus Spin_B electrons)

 CYCLE    2
 SCF Error: norm([F,P])=      0.000000000000, max([F,P])=      0.000000000000
 ***** SPIN 1 *****
 orbitals (Q,E):
 ---------------
 A :1...2            ( 1.00    -0.3210)  ( 0.00     0.3917)
 ***** SPIN 2 *****
 orbitals (Q,E):
 ---------------
 A :1...1            ( 0.00    -0.0324)
  
 Spin polar: 1 (Spin_A minus Spin_B electrons)

 SCF CONVERGED

 CYCLE    3
  
 Hartree-Fock exchange energy:  -0.304423662933109     
 *** Using FIT density in Focky
  SDIIS (wt  0.000): -0.0164  1.0164
 A-DIIS (wt  1.000):  0.0000  1.0000
  DIIS coefficients:  0.0000  1.0000
 SCF Error: norm([F,P])=      0.000000000000, max([F,P])=      0.000000000000
 ***** SPIN 1 *****
 orbitals (Q,E):
 ---------------
 A :1...2            ( 1.00    -0.3210)  ( 0.00     0.3917)
 ***** SPIN 2 *****
 orbitals (Q,E):
 ---------------
 A :1...2            ( 0.00    -0.0324)  ( 0.00     0.6429)
  
 Spin polar: 1 (Spin_A minus Spin_B electrons)


 Fit test: (difference of exact and fit density, squared integrated, result summed over spins)
         SCF:                                          0.00000000096161

 Gross Charges per Atom (Z minus electrons)
 ==========================================
             0.0000
 Net Total:  0.00000000



 =================================================================
 M U L T I P O L E   D E R I V E D   C H A R G E   A N A L Y S I S
 =================================================================

 See: M. Swart, P.Th. van Duijnen, J.G. Snijders, J.Comput.Chem., (2001), p. 79-88.

 ----------------------------------------------------- 
 MDC atomic charges (includes spinA + spinB electrons)
 ----------------------------------------------------- 

        Atom    Level:     MDC-m        MDC-d        MDC-q
 ---------------------------------------------------------
     1     H            0.000000     0.000000     0.000000

 -------------------------------- 
 MDC spin density (spinA - spinB)
 -------------------------------- 

        Atom    Level:     MDC-m        MDC-d        MDC-q
 ---------------------------------------------------------
     1     H            1.000000     1.000000     1.000000



 ==========
 S**2 value  ***  see also R. Bulo et al., J.Am.Chem.Soc., 124 (2002) 13903-13910, note (29)  ***
 ==========
  
                                       exact      expectation value

 Total S2 (S squared)                  0.75000             0.75000



 =======================================================================
 Electrostatic potential at the Nuclei due to electrons and other nuclei
 =======================================================================
  
         Atom                  Potential
         ----                  ---------
     1)   H                   0.99496563
 Mulliken charges used for AMS results%charges...
 Continuous PES requested. Disabling symmetry...
 *** adf-NumNuclDerivs_displ1 ***
 
 RIHartreeFock Dependency: number of modified vectors:           0
  
 Hartree-Fock exchange energy:  -0.304423662934431     

 Energy gradients wrt nuclear displacements
 ==========================================

     Atom      Cartesian (a.u./angstrom)
                 X         Y         Z
 ----------------------------------------
     1 H     0.000000  0.000000  0.000000
 ----------------------------------------
 Mulliken charges used for AMS results%charges...
Scanning modes in range provided by user.


    =====================
     CALCULATION RESULTS
    =====================

Energy (hartree)            -0.05375857

Gradients (hartree/bohr)
  Index   Atom            d/dx            d/dy            d/dz
      1      H    0.0000000000    0.0000000000    0.0000000000

 -----------------------
 Normal Mode Frequencies
 -----------------------

 Index   Frequency (cm-1)   Red. mass (u)  F const (Ha/Bohr^2)   Intensity (km/mol)

 Zero-point energy (Hartree):     0.0000

 ------------
 Normal Modes
 ------------

 Number of removed rigid normal modes: 3

 Vibrational polarizability tensor (a.u.):
                  X                   Y                   Z
 X               0.00000             0.00000             0.00000
 Y               0.00000             0.00000             0.00000
 Z               0.00000             0.00000             0.00000

 Isotropic =      0.0000    atomic units

PES point character: Geometry corresponds to a local minimum on the PES.




 ============================
 Statistical Thermal Analysis  ***  ideal gas assumed  ***
 ============================
  
 Pressure:                  1.000000 atm.
 Temperature:             298.150000 K



 Moments of Inertia [amu*bohr^2] and principal axis
 ==================================================

           0.0000          0.0000          0.0000
 ------------------------------------------------
           1.0000          0.0000          0.0000
           0.0000          1.0000          0.0000
           0.0000          0.0000          1.0000
 Contributions from frequencies below 20 1/cm are not included in vibrational sums.
 Their contributions, if any, are reported separately.


     Temp                                                        Transl      Rotat     Vibrat     Total
     ----                                                        ------      -----     ------     -----

     298.15   Entropy (cal/mol-K):                               26.014      0.000      0.000     26.014
              Nuclear Internal Energy (kcal/mol):                 0.889      0.000      0.000      0.889
              Constant Volume Heat Capacity (cal/mol-K):          2.981      0.000      0.000      2.981
          (c) Constant Volume Heat Capacity (cal/mol-K):          2.981      0.000      0.000      2.981

       Summary of energy terms
                                                   hartree              eV         kcal/mol           kJ/mol
                                      --------------------     -----------       ----------      -----------
      Energy from Engine:               -0.053758573543550         -1.4628           -33.73          -141.14
      Nuclear Internal Energy:           0.001416279020229          0.0385             0.89             3.72
  (c) Nuclear Internal Energy:           0.001416279020229          0.0385             0.89             3.72
      Internal Energy U:                -0.052342294523321         -1.4243           -32.85          -137.42
      pV/n = RT:                         0.000944186013486          0.0257             0.59             2.48
      Enthalpy H:                       -0.051398108509836         -1.3986           -32.25          -134.95
      -T*S:                             -0.012360166510362         -0.3363            -7.76           -32.45
  (c) -T*S:                             -0.012360166510362         -0.3363            -7.76           -32.45
      Gibbs free energy:                -0.063758275020198         -1.7350           -40.01          -167.40
 
 
 
  (c) The properties marked with this symbol have been corrected using 'low vibrational frequency free rotor
      interpolation corrections'. For those terms all positive frequencies are used (also ones below 20 1/cm),
      but the contribution to the partition function of small vibrational frequencies is modified as described
      in the following paper:
      S. Grimme, 'Supramolecular Binding Thermodynamics by Dispersion-Corrected Density Functional Theory'
      (Chem. Eur. J. 2012, 18, 9955-9964)
      Configuration: Dampener Frequency          :   100.000 1/cm
                     Dampener Alpha              :     4.000
                     Averaging Moment of Inertia : 1.000E-44 kg m2

--------------
Atomic charges
--------------
  Index   Atom    Charge
      1      H    0.0000


Dipole moment vector    (Debye):     0.00000000    0.00000000    0.00000000
              magnitude (Debye):     0.00000000


-----------------------
Molecular orbitals info
-----------------------
n orbitals:                2
n spin:                    2

                     spin-alpha   spin-beta
HOMO (eV):              -8.7359     17.4945
LUMO (eV):              10.6580     17.4945
HOMO-LUMO gap (eV):     19.3939      0.0000

Smallest gap (eV):      -6.8364

          |======= spin-alpha =======|       |======= spin-beta ========|

   Index   Energy (eV)    Occupation          Energy (eV)    Occupation
       2       10.6580         0.000 < LUMO       17.4945         0.000 < HOMO
       1       -8.7359         1.000 < HOMO       -0.8830         0.000       

AMS application finished. Exiting.
NORMAL TERMINATION
     Total cpu time:       4.62
  Total system time:       6.46
 Total elapsed time:      12.91
