    nwchem, len=6
      freq, len=4
 argument  1 = freq
  Unable to open freq --- appending .nw
                                         
                                         


              Northwest Computational Chemistry Package (NWChem) 6.0
              ------------------------------------------------------


                    Environmental Molecular Sciences Laboratory
                       Pacific Northwest National Laboratory
                                Richland, WA 99352

                              Copyright (c) 1994-2010
                       Pacific Northwest National Laboratory
                            Battelle Memorial Institute

             NWChem is an open-source computational chemistry package
                        distributed under the terms of the
                      Educational Community License (ECL) 2.0
             A copy of the license is included with this distribution
                              in the LICENSE.TXT file

                                  ACKNOWLEDGMENT
                                  --------------

            This software and its documentation were developed at the
            EMSL at Pacific Northwest National Laboratory, a multiprogram
            national laboratory, operated for the U.S. Department of Energy
            by Battelle under Contract Number DE-AC05-76RL01830. Support
            for this work was provided by the Department of Energy Office
            of Biological and Environmental Research, Office of Basic
            Energy Sciences, and the Office of Advanced Scientific Computing.


           Job information
           ---------------

    hostname      = clovis1
    program       = nwchem
    date          = Sat May  4 10:53:26 2013

    compiled      = Tue_Nov_09_10:54:15_2010
    source        = /home/d3y133/nwchem-releases/nwchem-6.0-linux
    nwchem branch = 6.0
    input         = freq.nw
    prefix        = img.
    data base     = ./img.db
    status        = startup
    nproc         =        1
    time left     =     -1s



           Memory information
           ------------------

    heap     =   13107201 doubles =    100.0 Mbytes
    stack    =   13107201 doubles =    100.0 Mbytes
    global   =   26214400 doubles =    200.0 Mbytes (distinct from heap & stack)
    total    =   52428802 doubles =    400.0 Mbytes
    verify   = yes
    hardfail = no 


           Directory information
           ---------------------

  0 permanent = .
  0 scratch   = .




                                NWChem Input Module
                                -------------------



 Scaling coordinates for geometry "geometry" by  1.889725989
 (inverse scale =  0.529177249)

 C1  symmetry detected

          ------
          auto-z
          ------


                             Geometry "geometry" -> ""
                             -------------------------

 Output coordinates in angstroms (scale by  1.889725989 to convert to a.u.)

  No.       Tag          Charge          X              Y              Z
 ---- ---------------- ---------- -------------- -------------- --------------
    1 O                    8.0000     0.95172747     3.32279189    -0.25956895
    2 C                    6.0000    -0.28097481     2.89743325    -0.04421389
    3 O                    8.0000    -1.25858729     3.57743227     0.04203572
    4 C                    6.0000    -0.35756294     1.41611458     0.09054038
    5 C                    6.0000     0.70611776     0.60956928     0.01132328
    6 C                    6.0000     0.57540216    -0.80864391     0.15537428
    7 O                    8.0000     1.58153561    -1.54370901     0.08192750
    8 C                    6.0000    -0.70070266    -1.59422558     0.41600757
    9 N                    7.0000    -0.29687402    -2.98274354     0.38188836
   10 C                    6.0000    -0.75451948    -3.79697062    -0.75704734
   11 H                    1.0000     0.04336327    -3.92465027    -1.48295285
   12 H                    1.0000    -1.61002001    -3.34088157    -1.24880168
   13 H                    1.0000    -1.05366235    -4.77663294    -0.40139514
   14 H                    1.0000    -0.47470286    -3.44453649     1.25953367
   15 H                    1.0000    -1.09558924    -1.30639186     1.38996018
   16 H                    1.0000    -1.45510230    -1.35336147    -0.33135998
   17 H                    1.0000    -1.36176467     1.05550941     0.26151495
   18 H                    1.0000     1.69943925     0.99713670    -0.15959030
   19 H                    1.0000     0.93975338     4.28572552    -0.33731858
   20 H                    1.0000     1.12243719    -2.50449543     0.23013142

      Atomic Mass 
      ----------- 

      O                 15.994910
      C                 12.000000
      N                 14.003070
      H                  1.007825


 Effective nuclear repulsion energy (a.u.)     519.3950448682

            Nuclear Dipole moment (a.u.) 
            ----------------------------
        X                 Y               Z
 ---------------- ---------------- ----------------
     0.0000000000     0.0000000000     0.0000000000



                                Z-matrix (autoz)
                                -------- 

 Units are Angstrom for bonds and degrees for angles

      Type          Name      I     J     K     L     M      Value
      ----------- --------  ----- ----- ----- ----- ----- ----------
    1 Stretch                  1     2                       1.32169
    2 Stretch                  1    19                       0.96614
    3 Stretch                  2     3                       1.19397
    4 Stretch                  2     4                       1.48941
    5 Stretch                  4     5                       1.33724
    6 Stretch                  4    17                       1.08060
    7 Stretch                  5     6                       1.43149
    8 Stretch                  5    18                       1.07986
    9 Stretch                  6     7                       1.24821
   10 Stretch                  6     8                       1.52102
   11 Stretch                  7    20                       1.07510
   12 Stretch                  8     9                       1.44645
   13 Stretch                  8    15                       1.08966
   14 Stretch                  8    16                       1.08889
   15 Stretch                  9    10                       1.47295
   16 Stretch                  9    14                       1.00754
   17 Stretch                 10    11                       1.08621
   18 Stretch                 10    12                       1.08707
   19 Stretch                 10    13                       1.08430
   20 Bend                     1     2     3               126.30925
   21 Bend                     1     2     4               112.50623
   22 Bend                     2     1    19               108.80293
   23 Bend                     2     4     5               123.61470
   24 Bend                     2     4    17               113.20356
   25 Bend                     3     2     4               121.18452
   26 Bend                     4     5     6               121.26202
   27 Bend                     4     5    18               121.64057
   28 Bend                     5     4    17               123.18162
   29 Bend                     5     6     7               120.25891
   30 Bend                     5     6     8               127.26813
   31 Bend                     6     5    18               117.09698
   32 Bend                     6     7    20               100.01795
   33 Bend                     6     8     9               104.92316
   34 Bend                     6     8    15               108.70945
   35 Bend                     6     8    16               110.45052
   36 Bend                     7     6     8               112.46984
   37 Bend                     8     9    10               117.52545
   38 Bend                     8     9    14               111.72527
   39 Bend                     9     8    15               112.07547
   40 Bend                     9     8    16               112.92800
   41 Bend                     9    10    11               110.70135
   42 Bend                     9    10    12               111.24605
   43 Bend                     9    10    13               109.36203
   44 Bend                    10     9    14               111.42892
   45 Bend                    11    10    12               108.97065
   46 Bend                    11    10    13               108.40008
   47 Bend                    12    10    13               108.07911
   48 Bend                    15     8    16               107.69621
   49 Torsion                  1     2     4     5           0.44161
   50 Torsion                  1     2     4    17        -179.67932
   51 Torsion                  2     4     5     6         179.67110
   52 Torsion                  2     4     5    18          -0.08023
   53 Torsion                  3     2     1    19           0.03224
   54 Torsion                  3     2     4     5        -179.54011
   55 Torsion                  3     2     4    17           0.33896
   56 Torsion                  4     2     1    19        -179.94836
   57 Torsion                  4     5     6     7        -179.79299
   58 Torsion                  4     5     6     8          -0.48558
   59 Torsion                  5     6     7    20        -179.97382
   60 Torsion                  5     6     8     9         176.14994
   61 Torsion                  5     6     8    15         -63.79024
   62 Torsion                  5     6     8    16          54.16649
   63 Torsion                  6     5     4    17          -0.19610
   64 Torsion                  6     8     9    10        -110.11320
   65 Torsion                  6     8     9    14         119.25987
   66 Torsion                  7     6     5    18          -0.03080
   67 Torsion                  7     6     8     9          -4.49744
   68 Torsion                  7     6     8    15         115.56238
   69 Torsion                  7     6     8    16        -126.48090
   70 Torsion                  8     6     5    18         179.27661
   71 Torsion                  8     6     7    20           0.62263
   72 Torsion                  8     9    10    11         101.84749
   73 Torsion                  8     9    10    12         -19.47062
   74 Torsion                  8     9    10    13        -138.78155
   75 Torsion                 10     9     8    15         132.09150
   76 Torsion                 10     9     8    16          10.24107
   77 Torsion                 11    10     9    14        -127.38929
   78 Torsion                 12    10     9    14         111.29260
   79 Torsion                 13    10     9    14          -8.01834
   80 Torsion                 14     9     8    15           1.46457
   81 Torsion                 14     9     8    16        -120.38586
   82 Torsion                 17     4     5    18        -179.94743


            XYZ format geometry
            -------------------
    20
 geometry
 O                     0.95172747     3.32279189    -0.25956895
 C                    -0.28097481     2.89743325    -0.04421389
 O                    -1.25858729     3.57743227     0.04203572
 C                    -0.35756294     1.41611458     0.09054038
 C                     0.70611776     0.60956928     0.01132328
 C                     0.57540216    -0.80864391     0.15537428
 O                     1.58153561    -1.54370901     0.08192750
 C                    -0.70070266    -1.59422558     0.41600757
 N                    -0.29687402    -2.98274354     0.38188836
 C                    -0.75451948    -3.79697062    -0.75704734
 H                     0.04336327    -3.92465027    -1.48295285
 H                    -1.61002001    -3.34088157    -1.24880168
 H                    -1.05366235    -4.77663294    -0.40139514
 H                    -0.47470286    -3.44453649     1.25953367
 H                    -1.09558924    -1.30639186     1.38996018
 H                    -1.45510230    -1.35336147    -0.33135998
 H                    -1.36176467     1.05550941     0.26151495
 H                     1.69943925     0.99713670    -0.15959030
 H                     0.93975338     4.28572552    -0.33731858
 H                     1.12243719    -2.50449543     0.23013142

 ==============================================================================
                                internuclear distances
 ------------------------------------------------------------------------------
       center one      |      center two      | atomic units |  angstroms
 ------------------------------------------------------------------------------
    2 C                |   1 O                |     2.49763  |     1.32169
    3 O                |   2 C                |     2.25628  |     1.19397
    4 C                |   2 C                |     2.81457  |     1.48941
    5 C                |   4 C                |     2.52701  |     1.33724
    6 C                |   5 C                |     2.70513  |     1.43149
    7 O                |   6 C                |     2.35877  |     1.24821
    8 C                |   6 C                |     2.87432  |     1.52102
    9 N                |   8 C                |     2.73340  |     1.44645
   10 C                |   9 N                |     2.78347  |     1.47295
   11 H                |  10 C                |     2.05264  |     1.08621
   12 H                |  10 C                |     2.05426  |     1.08707
   13 H                |  10 C                |     2.04904  |     1.08430
   14 H                |   9 N                |     1.90397  |     1.00754
   15 H                |   8 C                |     2.05917  |     1.08966
   16 H                |   8 C                |     2.05771  |     1.08890
   17 H                |   4 C                |     2.04203  |     1.08060
   18 H                |   5 C                |     2.04065  |     1.07986
   19 H                |   1 O                |     1.82574  |     0.96614
 ------------------------------------------------------------------------------
                         number of included internuclear distances:         18
 ==============================================================================



 ==============================================================================
                                 internuclear angles
 ------------------------------------------------------------------------------
        center 1       |       center 2       |       center 3       |  degrees
 ------------------------------------------------------------------------------
    2 C                |   1 O                |  19 H                |   108.80
    1 O                |   2 C                |   3 O                |   126.31
    1 O                |   2 C                |   4 C                |   112.51
    3 O                |   2 C                |   4 C                |   121.18
    2 C                |   4 C                |   5 C                |   123.61
    2 C                |   4 C                |  17 H                |   113.20
    5 C                |   4 C                |  17 H                |   123.18
    4 C                |   5 C                |   6 C                |   121.26
    4 C                |   5 C                |  18 H                |   121.64
    6 C                |   5 C                |  18 H                |   117.10
    5 C                |   6 C                |   7 O                |   120.26
    5 C                |   6 C                |   8 C                |   127.27
    7 O                |   6 C                |   8 C                |   112.47
    6 C                |   8 C                |   9 N                |   104.92
    6 C                |   8 C                |  15 H                |   108.71
    6 C                |   8 C                |  16 H                |   110.45
    9 N                |   8 C                |  15 H                |   112.08
    9 N                |   8 C                |  16 H                |   112.93
   15 H                |   8 C                |  16 H                |   107.70
    8 C                |   9 N                |  10 C                |   117.53
    8 C                |   9 N                |  14 H                |   111.73
   10 C                |   9 N                |  14 H                |   111.43
    9 N                |  10 C                |  11 H                |   110.70
    9 N                |  10 C                |  12 H                |   111.25
    9 N                |  10 C                |  13 H                |   109.36
   11 H                |  10 C                |  12 H                |   108.97
   11 H                |  10 C                |  13 H                |   108.40
   12 H                |  10 C                |  13 H                |   108.08
 ------------------------------------------------------------------------------
                            number of included internuclear angles:         28
 ==============================================================================



  library name resolved from: .nwchemrc
  library file name is: </apps/nwchem/6.0/usr.local.lib.nwchem/libraries/>
  


 Summary of "ao basis" -> "" (cartesian)
 ------------------------------------------------------------------------------
       Tag                 Description            Shells   Functions and Types
 ---------------- ------------------------------  ------  ---------------------
 *                           sto-3g                   on all atoms 


                              TS : STO-3G 2 freq img
                              ----------------------


                   NWChem Nuclear Hessian and Frequency Analysis
                   ---------------------------------------------



                              NWChem Analytic Hessian
                              -----------------------

                      Basis "ao basis" -> "ao basis" (cartesian)
                      -----
  O (Oxygen)
  ----------
            Exponent  Coefficients 
       -------------- ---------------------------------------------------------
  1 S  1.30709320E+02  0.154329
  1 S  2.38088610E+01  0.535328
  1 S  6.44360830E+00  0.444635

  2 S  5.03315130E+00 -0.099967
  2 S  1.16959610E+00  0.399513
  2 S  3.80389000E-01  0.700115

  3 P  5.03315130E+00  0.155916
  3 P  1.16959610E+00  0.607684
  3 P  3.80389000E-01  0.391957

  C (Carbon)
  ----------
            Exponent  Coefficients 
       -------------- ---------------------------------------------------------
  1 S  7.16168370E+01  0.154329
  1 S  1.30450960E+01  0.535328
  1 S  3.53051220E+00  0.444635

  2 S  2.94124940E+00 -0.099967
  2 S  6.83483100E-01  0.399513
  2 S  2.22289900E-01  0.700115

  3 P  2.94124940E+00  0.155916
  3 P  6.83483100E-01  0.607684
  3 P  2.22289900E-01  0.391957

  N (Nitrogen)
  ------------
            Exponent  Coefficients 
       -------------- ---------------------------------------------------------
  1 S  9.91061690E+01  0.154329
  1 S  1.80523120E+01  0.535328
  1 S  4.88566020E+00  0.444635

  2 S  3.78045590E+00 -0.099967
  2 S  8.78496600E-01  0.399513
  2 S  2.85714400E-01  0.700115

  3 P  3.78045590E+00  0.155916
  3 P  8.78496600E-01  0.607684
  3 P  2.85714400E-01  0.391957

  H (Hydrogen)
  ------------
            Exponent  Coefficients 
       -------------- ---------------------------------------------------------
  1 S  3.42525091E+00  0.154329
  1 S  6.23913730E-01  0.535328
  1 S  1.68855400E-01  0.444635



 Summary of "ao basis" -> "ao basis" (cartesian)
 ------------------------------------------------------------------------------
       Tag                 Description            Shells   Functions and Types
 ---------------- ------------------------------  ------  ---------------------
 O                           sto-3g                  3        5   2s1p
 C                           sto-3g                  3        5   2s1p
 N                           sto-3g                  3        5   2s1p
 H                           sto-3g                  1        1   1s


                                 NWChem SCF Module
                                 -----------------


                              TS : STO-3G 2 freq img



  ao basis        = "ao basis"
  functions       =    60
  atoms           =    20
  closed shells   =    38
  open shells     =     0
  charge          =   1.00
  wavefunction    = RHF 
  input vectors   = atomic
  output vectors  = ./img.movecs
  use symmetry    = F
  symmetry adapt  = F


 Summary of "ao basis" -> "ao basis" (cartesian)
 ------------------------------------------------------------------------------
       Tag                 Description            Shells   Functions and Types
 ---------------- ------------------------------  ------  ---------------------
 O                           sto-3g                  3        5   2s1p
 C                           sto-3g                  3        5   2s1p
 N                           sto-3g                  3        5   2s1p
 H                           sto-3g                  1        1   1s



 Forming initial guess at       0.1s


      Superposition of Atomic Density Guess
      -------------------------------------

 Sum of atomic energies:        -502.68486900

 Renormalizing density from      77.00 to     76

      Non-variational initial energy
      ------------------------------

 Total energy =    -501.170932
 1-e energy   =   -1705.051477
 2-e energy   =     684.485501
 HOMO         =      -0.358291
 LUMO         =      -0.135856


 Starting SCF solution at       1.2s



 ----------------------------------------------
         Quadratically convergent ROHF

 Convergence threshold     :          1.000E-06
 Maximum no. of iterations :           30
 Final Fock-matrix accuracy:          1.000E-08
 ----------------------------------------------


              iter       energy          gnorm     gmax       time
             ----- ------------------- --------- --------- --------
                 1     -505.0421460909  1.65D+00  4.37D-01      3.8
                 2     -505.2667992531  4.70D-01  9.80D-02      9.5
                 3     -505.2926470955  2.08D-02  6.77D-03     15.5
                 4     -505.2927400696  2.50D-04  6.19D-05     23.1
                 5     -505.2927400800  6.83D-08  2.57D-08     38.2


       Final RHF  results 
       ------------------ 

         Total SCF energy =   -505.292740079951
      One-electron energy =  -1709.502612717245
      Two-electron energy =    684.814827769139
 Nuclear repulsion energy =    519.395044868154

        Time for solution =     37.0s


             Final eigenvalues
             -----------------

              1      
    1  -20.6167
    2  -20.4576
    3  -20.4323
    4  -15.5829
    5  -11.4191
    6  -11.3450
    7  -11.3275
    8  -11.2822
    9  -11.2603
   10  -11.2498
   11   -1.6491
   12   -1.5505
   13   -1.4434
   14   -1.3949
   15   -1.2559
   16   -1.1628
   17   -1.0855
   18   -1.0342
   19   -0.9455
   20   -0.9179
   21   -0.8963
   22   -0.8618
   23   -0.8278
   24   -0.7897
   25   -0.7798
   26   -0.7461
   27   -0.7361
   28   -0.7335
   29   -0.7110
   30   -0.7097
   31   -0.6874
   32   -0.6845
   33   -0.6530
   34   -0.6099
   35   -0.5583
   36   -0.5423
   37   -0.5053
   38   -0.4908
   39   -0.0605
   40    0.1213
   41    0.2508
   42    0.3347
   43    0.3529
   44    0.3801
   45    0.3982
   46    0.4129
   47    0.4272
   48    0.4472

                       ROHF Final Molecular Orbital Analysis
                       -------------------------------------

 Vector   13  Occ=2.000000D+00  E=-1.443420D+00
              MO Center= -1.6D-01,  3.4D+00, -1.0D-01, r^2= 1.4D+00
   Bfn.  Coefficient  Atom+Function         Bfn.  Coefficient  Atom+Function  
  ----- ------------  ---------------      ----- ------------  ---------------
     2      0.596501   1 O  s                12     -0.577036   3 O  s         
     8      0.221591   2 C  px                1     -0.166503   1 O  s         
    11      0.165793   3 O  s         

 Vector   14  Occ=2.000000D+00  E=-1.394867D+00
              MO Center= -4.0D-01, -2.7D+00,  3.2D-01, r^2= 1.3D+00
   Bfn.  Coefficient  Atom+Function         Bfn.  Coefficient  Atom+Function  
  ----- ------------  ---------------      ----- ------------  ---------------
    42      0.651540   9 N  s                37      0.273554   8 C  s         
    41     -0.196007   9 N  s                47      0.180990  10 C  s         
    32     -0.179892   7 O  s         

 Vector   15  Occ=2.000000D+00  E=-1.255913D+00
              MO Center=  2.4D-01,  3.5D-01,  9.3D-02, r^2= 2.3D+00
   Bfn.  Coefficient  Atom+Function         Bfn.  Coefficient  Atom+Function  
  ----- ------------  ---------------      ----- ------------  ---------------
    22      0.418025   5 C  s                17      0.354061   4 C  s         
    27      0.284399   6 C  s                32     -0.192627   7 O  s         
    21     -0.164421   5 C  s         

 Vector   16  Occ=2.000000D+00  E=-1.162765D+00
              MO Center= -3.4D-01, -1.4D+00,  1.2D-01, r^2= 4.7D+00
   Bfn.  Coefficient  Atom+Function         Bfn.  Coefficient  Atom+Function  
  ----- ------------  ---------------      ----- ------------  ---------------
    37      0.437898   8 C  s                47     -0.286033  10 C  s         
    17     -0.251530   4 C  s                27      0.207390   6 C  s         
    42     -0.185396   9 N  s                32     -0.177587   7 O  s         
    44      0.165666   9 N  py               36     -0.150118   8 C  s         

 Vector   17  Occ=2.000000D+00  E=-1.085475D+00
              MO Center=  3.4D-02, -6.9D-01, -1.2D-01, r^2= 7.3D+00
   Bfn.  Coefficient  Atom+Function         Bfn.  Coefficient  Atom+Function  
  ----- ------------  ---------------      ----- ------------  ---------------
    47      0.336015  10 C  s                17     -0.318000   4 C  s         
    27      0.309097   6 C  s                34      0.199847   7 O  py        
    24     -0.166252   5 C  py                7     -0.164962   2 C  s         
     9      0.151696   2 C  py        

 Vector   18  Occ=2.000000D+00  E=-1.034162D+00
              MO Center= -4.1D-01, -2.2D+00, -1.5D-01, r^2= 5.9D+00
   Bfn.  Coefficient  Atom+Function         Bfn.  Coefficient  Atom+Function  
  ----- ------------  ---------------      ----- ------------  ---------------
    47      0.402270  10 C  s                42     -0.335402   9 N  s         
    37      0.210780   8 C  s                45     -0.203309   9 N  pz        
    22     -0.190214   5 C  s                54     -0.189998  14 H  s         

 Vector   19  Occ=2.000000D+00  E=-9.454680D-01
              MO Center=  6.3D-01,  2.5D-01,  4.9D-02, r^2= 6.5D+00
   Bfn.  Coefficient  Atom+Function         Bfn.  Coefficient  Atom+Function  
  ----- ------------  ---------------      ----- ------------  ---------------
    34      0.413316   7 O  py                7      0.308755   2 C  s         
    60     -0.264305  20 H  s                19      0.246835   4 C  py        
    22     -0.211718   5 C  s                27      0.207523   6 C  s         
    12     -0.201560   3 O  s                28      0.196574   6 C  px        
     4     -0.175219   1 O  py        

 Vector   20  Occ=2.000000D+00  E=-9.179146D-01
              MO Center=  3.8D-02, -1.5D+00,  2.6D-01, r^2= 2.9D+00
   Bfn.  Coefficient  Atom+Function         Bfn.  Coefficient  Atom+Function  
  ----- ------------  ---------------      ----- ------------  ---------------
    32      0.377144   7 O  s                38     -0.339469   8 C  px        
    33      0.325364   7 O  px               27     -0.319290   6 C  s         
    37      0.241075   8 C  s                43     -0.219029   9 N  px        
    56      0.198837  16 H  s                55      0.188273  15 H  s         
    29      0.160864   6 C  py        

 Vector   21  Occ=2.000000D+00  E=-8.962779D-01
              MO Center=  1.3D-01,  1.2D+00,  4.0D-02, r^2= 5.5D+00
   Bfn.  Coefficient  Atom+Function         Bfn.  Coefficient  Atom+Function  
  ----- ------------  ---------------      ----- ------------  ---------------
    57      0.276846  17 H  s                18     -0.261006   4 C  px        
     4      0.245567   1 O  py               17      0.243750   4 C  s         
    22     -0.219381   5 C  s                 7     -0.208840   2 C  s         
    59      0.205307  19 H  s                58     -0.185257  18 H  s         
    23     -0.163574   5 C  px                3      0.161263   1 O  px        

 Vector   22  Occ=2.000000D+00  E=-8.618483D-01
              MO Center= -3.1D-01, -1.9D+00,  3.0D-01, r^2= 5.1D+00
   Bfn.  Coefficient  Atom+Function         Bfn.  Coefficient  Atom+Function  
  ----- ------------  ---------------      ----- ------------  ---------------
    40      0.306994   8 C  pz               45      0.287265   9 N  pz        
    55      0.226280  15 H  s                39      0.217557   8 C  py        
    44     -0.212672   9 N  py               54      0.204570  14 H  s         
    49     -0.199868  10 C  py               30      0.157952   6 C  pz        
    35      0.150784   7 O  pz               53      0.150240  13 H  s         

 Vector   23  Occ=2.000000D+00  E=-8.277964D-01
              MO Center=  3.2D-01, -3.0D-01,  1.0D-02, r^2= 6.2D+00
   Bfn.  Coefficient  Atom+Function         Bfn.  Coefficient  Atom+Function  
  ----- ------------  ---------------      ----- ------------  ---------------
    29      0.282165   6 C  py               24     -0.268855   5 C  py        
    33      0.241680   7 O  px               40     -0.218052   8 C  pz        
     7      0.189322   2 C  s                 3     -0.182780   1 O  px        
    44     -0.168448   9 N  py               28     -0.161615   6 C  px        
    32      0.161380   7 O  s                12     -0.158309   3 O  s         

 Vector   24  Occ=2.000000D+00  E=-7.896537D-01
              MO Center=  1.7D-01,  6.7D-01,  1.6D-02, r^2= 6.4D+00
   Bfn.  Coefficient  Atom+Function         Bfn.  Coefficient  Atom+Function  
  ----- ------------  ---------------      ----- ------------  ---------------
    23      0.291702   5 C  px               19      0.262679   4 C  py        
    29      0.241682   6 C  py               14     -0.239847   3 O  py        
    18     -0.208396   4 C  px                9     -0.205503   2 C  py        
    24     -0.202509   5 C  py                8     -0.196404   2 C  px        
    33      0.191064   7 O  px                3      0.173017   1 O  px        

 Vector   25  Occ=2.000000D+00  E=-7.797883D-01
              MO Center= -2.0D-02, -6.0D-01,  3.7D-02, r^2= 7.5D+00
   Bfn.  Coefficient  Atom+Function         Bfn.  Coefficient  Atom+Function  
  ----- ------------  ---------------      ----- ------------  ---------------
    44      0.286866   9 N  py               35      0.228629   7 O  pz        
    39     -0.227967   8 C  py                3     -0.212266   1 O  px        
     9      0.198596   2 C  py               56     -0.192993  16 H  s         
    30      0.181832   6 C  pz               40      0.179082   8 C  pz        
    33      0.167016   7 O  px               19     -0.156883   4 C  py        

 Vector   26  Occ=2.000000D+00  E=-7.461469D-01
              MO Center= -2.0D-01, -1.8D+00, -1.5D-01, r^2= 7.2D+00
   Bfn.  Coefficient  Atom+Function         Bfn.  Coefficient  Atom+Function  
  ----- ------------  ---------------      ----- ------------  ---------------
    35      0.338642   7 O  pz               45     -0.312670   9 N  pz        
    48      0.300278  10 C  px               30      0.240822   6 C  pz        
    44     -0.228976   9 N  py               52     -0.227040  12 H  s         
    12      0.197896   3 O  s                50      0.178359  10 C  pz        
    39      0.162926   8 C  py        

 Vector   27  Occ=2.000000D+00  E=-7.361003D-01
              MO Center= -1.9D-01, -1.2D+00, -3.2D-01, r^2= 9.9D+00
   Bfn.  Coefficient  Atom+Function         Bfn.  Coefficient  Atom+Function  
  ----- ------------  ---------------      ----- ------------  ---------------
    48      0.360635  10 C  px               51      0.282166  11 H  s         
    35     -0.257405   7 O  pz               13      0.220026   3 O  px        
    52     -0.213117  12 H  s                12     -0.201596   3 O  s         
    43      0.192742   9 N  px                9      0.183130   2 C  py        
    30     -0.172088   6 C  pz                3     -0.166786   1 O  px        

 Vector   28  Occ=2.000000D+00  E=-7.335484D-01
              MO Center= -1.0D-01,  1.3D+00, -1.3D-01, r^2= 1.0D+01
   Bfn.  Coefficient  Atom+Function         Bfn.  Coefficient  Atom+Function  
  ----- ------------  ---------------      ----- ------------  ---------------
    12      0.422232   3 O  s                13     -0.360656   3 O  px        
     4     -0.311150   1 O  py               35     -0.288143   7 O  pz        
     2      0.230543   1 O  s                 7     -0.182868   2 C  s         
    59     -0.174039  19 H  s                51      0.173235  11 H  s         
    50     -0.169781  10 C  pz                9     -0.169317   2 C  py        

 Vector   29  Occ=2.000000D+00  E=-7.109742D-01
              MO Center=  1.7D-02,  1.6D+00, -1.3D-02, r^2= 5.4D+00
   Bfn.  Coefficient  Atom+Function         Bfn.  Coefficient  Atom+Function  
  ----- ------------  ---------------      ----- ------------  ---------------
     5      0.352146   1 O  pz               10      0.298280   2 C  pz        
    18     -0.266473   4 C  px               57      0.263877  17 H  s         
    23      0.228073   5 C  px               33     -0.227847   7 O  px        
    15      0.216551   3 O  pz                8      0.182763   2 C  px        
    14      0.170596   3 O  py               58      0.169020  18 H  s         

 Vector   30  Occ=2.000000D+00  E=-7.097109D-01
              MO Center=  1.2D-01,  1.8D+00, -6.9D-02, r^2= 5.7D+00
   Bfn.  Coefficient  Atom+Function         Bfn.  Coefficient  Atom+Function  
  ----- ------------  ---------------      ----- ------------  ---------------
    10      0.417348   2 C  pz                5      0.386068   1 O  pz        
    15      0.275607   3 O  pz               18      0.237122   4 C  px        
    35     -0.213904   7 O  pz               57     -0.203699  17 H  s         
    33      0.185222   7 O  px               23     -0.172719   5 C  px        

 Vector   31  Occ=2.000000D+00  E=-6.873949D-01
              MO Center= -3.8D-01, -2.5D+00, -8.4D-02, r^2= 4.1D+00
   Bfn.  Coefficient  Atom+Function         Bfn.  Coefficient  Atom+Function  
  ----- ------------  ---------------      ----- ------------  ---------------
    50      0.370253  10 C  pz               45     -0.329934   9 N  pz        
    35     -0.317895   7 O  pz               40      0.288521   8 C  pz        
    56     -0.269384  16 H  s                51     -0.247341  11 H  s         
    54     -0.241707  14 H  s                55      0.213526  15 H  s         
    53      0.176258  13 H  s         

 Vector   32  Occ=2.000000D+00  E=-6.845488D-01
              MO Center= -4.6D-01, -2.9D+00, -2.3D-01, r^2= 4.4D+00
   Bfn.  Coefficient  Atom+Function         Bfn.  Coefficient  Atom+Function  
  ----- ------------  ---------------      ----- ------------  ---------------
    49      0.435896  10 C  py               53     -0.352778  13 H  s         
    33     -0.282510   7 O  px               52      0.262273  12 H  s         
    40      0.232945   8 C  pz               55      0.227666  15 H  s         
    44     -0.218769   9 N  py               35     -0.179219   7 O  pz        

 Vector   33  Occ=2.000000D+00  E=-6.530099D-01
              MO Center=  3.5D-01, -1.1D+00,  5.6D-02, r^2= 5.0D+00
   Bfn.  Coefficient  Atom+Function         Bfn.  Coefficient  Atom+Function  
  ----- ------------  ---------------      ----- ------------  ---------------
    33      0.397075   7 O  px               38      0.301529   8 C  px        
    28     -0.274934   6 C  px               58      0.241915  18 H  s         
    29     -0.224127   6 C  py               23      0.221983   5 C  px        
    39      0.220985   8 C  py               24      0.208730   5 C  py        
    32      0.201577   7 O  s                49      0.197653  10 C  py        

 Vector   34  Occ=2.000000D+00  E=-6.099263D-01
              MO Center=  1.4D-01,  3.1D+00, -1.3D-01, r^2= 2.5D+00
   Bfn.  Coefficient  Atom+Function         Bfn.  Coefficient  Atom+Function  
  ----- ------------  ---------------      ----- ------------  ---------------
     4      0.432909   1 O  py                3     -0.408535   1 O  px        
     2     -0.397531   1 O  s                14      0.336838   3 O  py        
    13     -0.319787   3 O  px               59      0.268807  19 H  s         
    19      0.252097   4 C  py               12      0.244797   3 O  s         
     8      0.236887   2 C  px                9     -0.175719   2 C  py        

 Vector   35  Occ=2.000000D+00  E=-5.583245D-01
              MO Center= -8.1D-02, -2.8D+00,  6.6D-02, r^2= 2.4D+00
   Bfn.  Coefficient  Atom+Function         Bfn.  Coefficient  Atom+Function  
  ----- ------------  ---------------      ----- ------------  ---------------
    43      0.778539   9 N  px               34      0.323424   7 O  py        
    51     -0.237896  11 H  s                42      0.231263   9 N  s         
    48     -0.228550  10 C  px               52      0.198879  12 H  s         

 Vector   36  Occ=2.000000D+00  E=-5.423457D-01
              MO Center=  5.2D-01,  1.3D+00, -1.9D-02, r^2= 3.0D+00
   Bfn.  Coefficient  Atom+Function         Bfn.  Coefficient  Atom+Function  
  ----- ------------  ---------------      ----- ------------  ---------------
    25      0.542638   5 C  pz                5     -0.478147   1 O  pz        
    20      0.473032   4 C  pz               35     -0.316912   7 O  pz        

 Vector   37  Occ=2.000000D+00  E=-5.052693D-01
              MO Center= -7.7D-01,  3.3D+00, -4.9D-03, r^2= 1.8D+00
   Bfn.  Coefficient  Atom+Function         Bfn.  Coefficient  Atom+Function  
  ----- ------------  ---------------      ----- ------------  ---------------
    14      0.703492   3 O  py               13      0.496194   3 O  px        
     3      0.397345   1 O  px               19      0.263749   4 C  py        
    17      0.169459   4 C  s         

 Vector   38  Occ=2.000000D+00  E=-4.907960D-01
              MO Center= -1.1D-01,  2.9D+00, -7.0D-02, r^2= 3.0D+00
   Bfn.  Coefficient  Atom+Function         Bfn.  Coefficient  Atom+Function  
  ----- ------------  ---------------      ----- ------------  ---------------
     5      0.609811   1 O  pz               15     -0.601120   3 O  pz        
    25      0.296692   5 C  pz               10     -0.279329   2 C  pz        
    20      0.167475   4 C  pz               35     -0.158488   7 O  pz        

 Vector   39  Occ=0.000000D+00  E=-6.049611D-02
              MO Center=  3.1D-01,  1.5D-01,  1.1D-01, r^2= 3.6D+00
   Bfn.  Coefficient  Atom+Function         Bfn.  Coefficient  Atom+Function  
  ----- ------------  ---------------      ----- ------------  ---------------
    30      0.641016   6 C  pz               20     -0.566563   4 C  pz        
    35     -0.483798   7 O  pz               15      0.263734   3 O  pz        
    25      0.226450   5 C  pz        

 Vector   40  Occ=0.000000D+00  E= 1.213393D-01
              MO Center=  1.3D-01,  1.1D+00,  5.9D-02, r^2= 4.5D+00
   Bfn.  Coefficient  Atom+Function         Bfn.  Coefficient  Atom+Function  
  ----- ------------  ---------------      ----- ------------  ---------------
    25      0.604471   5 C  pz               30     -0.570924   6 C  pz        
    15      0.450678   3 O  pz               10     -0.446846   2 C  pz        
    35      0.300253   7 O  pz               20     -0.290283   4 C  pz        
     5      0.201171   1 O  pz               55      0.165372  15 H  s         

 Vector   41  Occ=0.000000D+00  E= 2.507631D-01
              MO Center= -2.6D-01,  2.2D+00,  1.6D-02, r^2= 2.7D+00
   Bfn.  Coefficient  Atom+Function         Bfn.  Coefficient  Atom+Function  
  ----- ------------  ---------------      ----- ------------  ---------------
    10      0.719945   2 C  pz               20     -0.608740   4 C  pz        
    15     -0.503210   3 O  pz               25      0.470102   5 C  pz        
     5     -0.259782   1 O  pz               30     -0.230053   6 C  pz        

 Vector   42  Occ=0.000000D+00  E= 3.346867D-01
              MO Center= -3.0D-01, -2.1D+00,  1.6D-01, r^2= 3.2D+00
   Bfn.  Coefficient  Atom+Function         Bfn.  Coefficient  Atom+Function  
  ----- ------------  ---------------      ----- ------------  ---------------
    42      0.953555   9 N  s                38     -0.548389   8 C  px        
    39      0.443676   8 C  py               50     -0.394575  10 C  pz        
    54     -0.390144  14 H  s                28     -0.370804   6 C  px        
    37     -0.366799   8 C  s                22     -0.343983   5 C  s         
    27      0.313401   6 C  s                48     -0.284854  10 C  px        

 Vector   43  Occ=0.000000D+00  E= 3.528772D-01
              MO Center=  2.8D-01, -1.7D+00,  1.9D-01, r^2= 4.0D+00
   Bfn.  Coefficient  Atom+Function         Bfn.  Coefficient  Atom+Function  
  ----- ------------  ---------------      ----- ------------  ---------------
    60      0.759807  20 H  s                39      0.503511   8 C  py        
    28      0.431694   6 C  px               32     -0.415439   7 O  s         
    43     -0.359214   9 N  px               58     -0.300949  18 H  s         
    38      0.284791   8 C  px               34      0.281138   7 O  py        
    54      0.263500  14 H  s                29      0.259018   6 C  py        

 Vector   44  Occ=0.000000D+00  E= 3.800547D-01
              MO Center= -1.5D-01, -1.5D+00,  2.0D-01, r^2= 4.3D+00
   Bfn.  Coefficient  Atom+Function         Bfn.  Coefficient  Atom+Function  
  ----- ------------  ---------------      ----- ------------  ---------------
    27      0.789725   6 C  s                40      0.466882   8 C  pz        
    60      0.436325  20 H  s                54     -0.412586  14 H  s         
    39     -0.383971   8 C  py               55     -0.371770  15 H  s         
    32     -0.368342   7 O  s                50      0.366901  10 C  pz        
    45      0.366222   9 N  pz               24      0.357226   5 C  py        

 Vector   45  Occ=0.000000D+00  E= 3.981744D-01
              MO Center= -4.1D-01, -1.8D+00,  5.6D-01, r^2= 3.4D+00
   Bfn.  Coefficient  Atom+Function         Bfn.  Coefficient  Atom+Function  
  ----- ------------  ---------------      ----- ------------  ---------------
    27      0.724785   6 C  s                54      0.586251  14 H  s         
    39     -0.549516   8 C  py               55      0.498897  15 H  s         
    45     -0.457015   9 N  pz               40     -0.413513   8 C  pz        
    38     -0.380153   8 C  px               42     -0.371171   9 N  s         
    37     -0.316629   8 C  s                56     -0.306571  16 H  s         

 Vector   46  Occ=0.000000D+00  E= 4.128620D-01
              MO Center=  5.2D-01,  4.4D-01, -3.6D-02, r^2= 8.4D+00
   Bfn.  Coefficient  Atom+Function         Bfn.  Coefficient  Atom+Function  
  ----- ------------  ---------------      ----- ------------  ---------------
    58      0.585028  18 H  s                 7      0.566525   2 C  s         
    60      0.485023  20 H  s                59      0.474941  19 H  s         
    19     -0.465043   4 C  py               42     -0.445016   9 N  s         
     2     -0.418453   1 O  s                34      0.369703   7 O  py        
    23     -0.335213   5 C  px               22     -0.334697   5 C  s         

 Vector   47  Occ=0.000000D+00  E= 4.271995D-01
              MO Center= -8.3D-02,  1.5D+00,  1.4D-03, r^2= 6.7D+00
   Bfn.  Coefficient  Atom+Function         Bfn.  Coefficient  Atom+Function  
  ----- ------------  ---------------      ----- ------------  ---------------
    57      0.806094  17 H  s                17     -0.657852   4 C  s         
    59      0.590936  19 H  s                 2     -0.540587   1 O  s         
    18      0.440322   4 C  px               60     -0.357850  20 H  s         
     4     -0.302626   1 O  py                8      0.299672   2 C  px        
    58     -0.297406  18 H  s                37     -0.274993   8 C  s         

 Vector   48  Occ=0.000000D+00  E= 4.471683D-01
              MO Center= -2.9D-01, -2.1D+00, -1.2D-01, r^2= 7.7D+00
   Bfn.  Coefficient  Atom+Function         Bfn.  Coefficient  Atom+Function  
  ----- ------------  ---------------      ----- ------------  ---------------
    49      0.653238  10 C  py               44      0.642359   9 N  py        
    53      0.476698  13 H  s                59     -0.347955  19 H  s         
    37     -0.334163   8 C  s                54      0.299174  14 H  s         
     2      0.296379   1 O  s                40      0.289213   8 C  pz        
    60     -0.283840  20 H  s                47      0.283475  10 C  s         

 Vector   49  Occ=0.000000D+00  E= 5.046462D-01
              MO Center= -8.8D-01, -1.1D+00,  2.1D-01, r^2= 4.7D+00
   Bfn.  Coefficient  Atom+Function         Bfn.  Coefficient  Atom+Function  
  ----- ------------  ---------------      ----- ------------  ---------------
    37      1.229242   8 C  s                56     -0.851812  16 H  s         
    55     -0.719622  15 H  s                38     -0.464883   8 C  px        
    47      0.357077  10 C  s                42     -0.337266   9 N  s         
    59      0.295426  19 H  s                51     -0.293368  11 H  s         
    17      0.223992   4 C  s                 4     -0.218500   1 O  py        


 center of mass
 --------------
 x =   0.04214584 y =   0.18579244 z =   0.01069989

 moments of inertia (a.u.)
 ------------------
        3556.631021564207           0.000000000000           0.000000000000
           0.000000000000         503.115807536409           0.000000000000
           0.000000000000           0.000000000000        3913.420203974087

  Mulliken analysis of the total density
  --------------------------------------

    Atom       Charge   Shell Charges
 -----------   ------   -------------------------------------------------------
    1 O    8     8.30   2.00  1.80  4.50
    2 C    6     5.66   1.99  1.03  2.64
    3 O    8     8.22   2.00  1.86  4.36
    4 C    6     5.98   1.99  1.18  2.81
    5 C    6     6.09   1.99  1.11  2.98
    6 C    6     5.69   1.99  1.15  2.55
    7 O    8     8.20   2.00  1.83  4.37
    8 C    6     6.05   1.99  1.17  2.89
    9 N    7     7.36   1.99  1.52  3.85
   10 C    6     6.09   1.99  1.18  2.92
   11 H    1     0.90   0.90
   12 H    1     0.91   0.91
   13 H    1     0.89   0.89
   14 H    1     0.76   0.76
   15 H    1     0.87   0.87
   16 H    1     0.87   0.87
   17 H    1     0.88   0.88
   18 H    1     0.86   0.86
   19 H    1     0.74   0.74
   20 H    1     0.67   0.67

       Multipole analysis of the density wrt the origin
       ------------------------------------------------

     L   x y z        total         open         nuclear
     -   - - -        -----         ----         -------
     0   0 0 0      1.000000      0.000000     77.000000

     1   1 0 0     -0.277871      0.000000      0.000000
     1   0 1 0     -2.149988      0.000000      0.000000
     1   0 0 1      0.396730      0.000000      0.000000

     2   2 0 0    -39.859004      0.000000    240.186058
     2   1 1 0      6.223877      0.000000     30.200130
     2   1 0 1     -0.089386      0.000000      0.110628
     2   0 2 0    -14.171206      0.000000   1906.564347
     2   0 1 1     -2.412402      0.000000      7.756829
     2   0 0 2    -36.827168      0.000000     50.423182


 HESSIAN: the one electron contributions are done in       0.7s


 HESSIAN: 2-el 1st deriv. term done in                     5.9s


 HESSIAN: 2-el 2nd deriv. term done in                    16.0s

  stpr_wrt_fd_from_sq: overwrite of existing file:./img.hess
 stpr_wrt_fd_dipole: overwrite of existing file./img.fd_ddipole

 HESSIAN: the two electron contributions are done in      22.0s

                                NWChem CPHF Module
                                ------------------


  scftype          =     RHF 
  nclosed          =       38
  nopen            =        0
  variables        =      836
  # of vectors     =       60
  tolerance        = 0.10D-03
  level shift      = 0.00D+00
  max iterations   =       50
  max subspace     =      600



Iterative solution of linear equations
  No. of variables      836
  No. of equations       60
  Maximum subspace      600
        Iterations       50
       Convergence  1.0D-04
        Start time     69.6


   iter   nsub   residual    time
   ----  ------  --------  ---------
     1     60    2.13D-01      73.5
     2    120    4.50D-02      77.4
     3    180    3.05D-03      81.2
     4    240    4.57D-04      85.1
     5    300    7.38D-05      89.3
 HESSIAN: the CPHF contributions are done
  stpr_wrt_fd_from_sq: overwrite of existing file:./img.hess
 stpr_wrt_fd_dipole: overwrite of existing file./img.fd_ddipole
 HESSIAN: the Hessian is done


  Vibrational analysis via the FX method 

  See chapter 2 in "Molecular Vibrations" by Wilson, Decius and Cross

  Vib: Default input used 

  Nuclear Hessian passed symmetry test 



 ---------------------------- Atom information ----------------------------
     atom    #        X              Y              Z            mass
 --------------------------------------------------------------------------
    O        1  1.7985041D+00  6.2791662D+00 -4.9051419D-01  1.5994910D+01
    C        2 -5.3096541D-01  5.4753549D+00 -8.3552142D-02  1.2000000D+01
    O        3 -2.3783851D+00  6.7603667D+00  7.9435985D-02  1.5994910D+01
    C        4 -6.7569598D-01  2.6760685D+00  1.7109651D-01  1.2000000D+01
    C        5  1.3343691D+00  1.1519189D+00  2.1397893D-02  1.2000000D+01
    C        6  1.0873524D+00 -1.5281154D+00  2.9361481D-01  1.2000000D+01
    O        7  2.9886689D+00 -2.9171870D+00  1.5482053D-01  1.5994910D+01
    C        8 -1.3241360D+00 -3.0126495D+00  7.8614031D-01  1.2000000D+01
    N        9 -5.6101055D-01 -5.6365680D+00  7.2166435D-01  1.4003070D+01
    C       10 -1.4258351D+00 -7.1752340D+00 -1.4306120D+00  1.2000000D+01
    H       11  8.1944699D-02 -7.4165136D+00 -2.8023745D+00  1.0078250D+00
    H       12 -3.0424967D+00 -6.3133507D+00 -2.3598930D+00  1.0078250D+00
    H       13 -1.9911331D+00 -9.0265274D+00 -7.5852682D-01  1.0078250D+00
    H       14 -8.9705834D-01 -6.5092301D+00  2.3801735D+00  1.0078250D+00
    H       15 -2.0703635D+00 -2.4687227D+00  2.6266439D+00  1.0078250D+00
    H       16 -2.7497446D+00 -2.5574823D+00 -6.2617957D-01  1.0078250D+00
    H       17 -2.5733621D+00  1.9946236D+00  4.9419160D-01  1.0078250D+00
    H       18  3.2114745D+00  1.8843151D+00 -3.0158193D-01  1.0078250D+00
    H       19  1.7758764D+00  8.0988469D+00 -6.3743968D-01  1.0078250D+00
    H       20  2.1210987D+00 -4.7328101D+00  4.3488532D-01  1.0078250D+00
 --------------------------------------------------------------------------




          ----------------------------------------------------
          MASS-WEIGHTED NUCLEAR HESSIAN (Hartree/Bohr/Bohr/Kamu)
          ----------------------------------------------------


              1           2           3           4           5           6           7           8           9          10
   ----- ----- ----- ----- -----
    1   4.20765D+01
    2   9.28815D+00 5.74639D+01
    3  -6.99200D+00-6.15125D+00 1.00522D+00
    4  -3.86284D+01-1.51521D+01 6.56681D+00 1.20733D+02
    5  -7.11938D+00-1.31033D+01 1.94362D+00-2.14900D+01 7.97877D+01
    6   5.90404D+00 3.11752D+00-3.35730D+00-1.39684D+01-2.45959D+00 1.48699D+01
    7  -5.69715D+00 2.45518D+00 8.69164D-01-5.67208D+01 3.36079D+01 4.98609D+00 5.44620D+01
    8  -5.07009D-01 1.58818D+00 7.85737D-02 3.58540D+01-3.09777D+01-2.95196D+00-3.45734D+01 2.91257D+01
    9   1.11480D+00-3.53533D-01 1.51120D+00 4.79919D+00-2.62189D+00-3.91327D+00-5.07169D+00 2.63524D+00 5.80525D-01
   10   2.30334D-01-3.76038D+00 3.98961D-01-9.45016D+00-3.14644D+00 4.43276D-01-9.95662D-01 4.69146D+00 4.84456D-02 9.08110D+01
   11  -7.76857D-01-2.50023D+00 3.88033D-01-4.72695D+00-2.56428D+01 2.14767D+00 3.36478D+00-4.55235D+00 5.47723D-02-1.00494D+01
   12   1.50411D-01 8.24858D-01 7.30245D-01 5.86409D-01 1.92261D+00-8.38068D+00 1.53012D-01-1.40197D-01 1.99181D+00-9.89093D+00
   13  -2.44164D-02-1.08659D-01 1.18916D-02 1.13142D-01 9.24789D-01 6.66568D-02 7.10729D-01-5.93718D-01-6.77419D-02-4.27962D+01
   14  -2.21543D-01-3.56210D-01 6.21961D-02 4.61734D+00-1.06588D+00-4.53133D-01-1.08111D+00-4.69452D-01 1.85544D-01 1.86288D+01
   15   2.24697D-02 4.57666D-02-1.04889D-02-2.51050D-01 5.09353D-02 1.17319D+00-2.18466D-02 1.18433D-01-1.02088D-01 3.50660D+00
   16  -1.13358D-02-1.19801D-01-2.07656D-03-2.38689D-01-5.32203D-02 2.73559D-01-1.70343D-01 1.58452D-01-1.98555D-02-5.89976D-01
   17   2.96369D-01 4.12815D-01-8.75159D-02-1.24630D+00-9.35979D-01 4.07500D-01 7.86527D-01 1.21167D-01-1.45240D-01 4.04883D+00
   18  -3.93362D-02-3.02250D-02-9.99072D-02 3.81166D-01 2.30035D-01 1.61638D+00-8.02117D-02-4.85183D-02-2.13257D-01-2.03639D-01
   19   5.94934D-02 7.27751D-02-1.25046D-02-2.32747D-01-7.13105D-02 1.29282D-02 1.74788D-01-1.22260D-02-2.05601D-02 1.09798D+00
   20  -1.29095D-01-1.96448D-01 3.73744D-02 6.85729D-01 6.03058D-01-1.63495D-01-2.66910D-01-2.03341D-01 5.83073D-02-1.82615D+00
   21   5.42175D-03 8.87957D-03 1.41189D-02-5.48045D-02-5.87904D-02-1.68286D-01 3.76739D-03 2.15982D-02 2.44865D-02 4.73035D-02
   22   3.31239D-03 2.03802D-02-2.36196D-03-4.42408D-02-4.32821D-02-7.18911D-03 7.60536D-03 2.68465D-02-1.96549D-03 1.88887D-02
   23   1.63035D-02 8.91133D-03-2.97190D-03-9.22391D-02 5.16142D-04-2.74630D-04 3.59652D-02 1.64573D-02-4.99861D-03 3.89073D-02
   24  -1.94480D-03-5.51568D-03 3.94405D-03-4.64043D-03-2.47396D-04-9.59720D-02-9.57271D-04-5.52483D-03 1.12985D-02-1.59476D-02
   25  -2.95630D-02-6.82924D-02 1.27258D-02 2.05999D-01 2.52536D-01-5.85349D-02-7.97831D-02-7.81764D-02 2.01584D-02-5.42385D-01
   26  -2.13981D-02-5.23562D-02 8.74116D-03 9.87361D-02 1.49620D-01-2.78669D-02-4.39318D-02-4.97735D-02 1.10809D-02-1.84690D-01
   27   1.43095D-03 4.24728D-03 3.56566D-03-1.32766D-02-1.70479D-02-5.83825D-03 4.09729D-03 5.23924D-03 1.66157D-03 3.83551D-02
   28   1.86556D-03 7.04922D-03-1.54324D-03-1.30243D-02-2.20630D-02 6.57878D-03 6.01183D-03 7.30447D-03-2.50530D-03 3.80418D-02
   29   6.55359D-03 1.28928D-02-3.84986D-03-3.01746D-02-3.86568D-02 9.12919D-03 1.33159D-02 1.22863D-02-3.77261D-03 6.20646D-02
   30   1.29747D-02 2.93834D-02-7.44744D-03-5.42602D-02-8.02429D-02 1.82060D-02 2.49766D-02 2.68478D-02-7.40682D-03 1.07303D-01
   31  -2.32430D-03-5.06514D-03 5.48475D-04 5.95425D-03 1.07094D-02-3.62679D-04-3.22572D-03-3.80757D-03 4.82560D-04-7.67852D-03
   32   1.38020D-03 1.18916D-03 2.66592D-03-4.93602D-03-5.40005D-03-4.10539D-03 2.22974D-03 1.50057D-03 8.50102D-04 4.74927D-03
   33   1.23811D-04-3.29660D-03-5.48855D-04 3.70703D-03 1.05096D-02-1.26130D-03-2.11350D-03-3.86612D-03 8.66415D-04-1.37749D-02
   34  -3.78582D-04 3.61183D-03 1.52673D-03-3.49249D-03-1.11146D-02 2.81647D-04 2.44404D-03 4.02096D-03-6.23604D-04 1.52420D-02
   35  -9.00910D-04-2.00295D-03 2.48026D-03 8.69705D-03 7.87365D-03-7.77063D-03-3.06757D-03-2.18287D-03 2.38476D-03-2.89721D-02
   36  -4.26743D-03-7.47136D-03 1.36458D-04 1.82766D-02 2.22822D-02-2.22656D-03-7.68388D-03-7.26430D-03 5.64882D-04-3.40707D-02
   37  -1.50843D-03-1.08930D-03 5.94467D-04 2.39756D-03 1.29595D-03-1.24346D-03-8.44778D-04-2.61546D-04 5.54429D-04-1.23682D-03
   38   1.10579D-03-9.84516D-05 6.73544D-04-7.16603D-04 4.95527D-04-9.46051D-04 4.08862D-04-2.99162D-04 3.95009D-04-6.14245D-03
   39  -5.71615D-03-1.44758D-02 4.69004D-03 2.32718D-02 3.66679D-02-1.08261D-02-1.07524D-02-1.26870D-02 3.77475D-03-4.94993D-02
   40  -1.13250D-02-6.47890D-03-2.33431D-03 1.95519D-02 5.26191D-03-2.97368D-03-7.65465D-03-1.54368D-03 1.73628D-03 1.15607D-02
   41   4.67839D-03-2.75035D-04-2.58855D-03-1.57550D-02-6.24816D-03 8.21907D-03 7.49504D-03 1.70543D-04-2.52754D-03 1.84944D-02
   42  -1.81689D-02-4.06252D-02 2.72370D-03 7.14482D-02 1.08728D-01-1.43258D-02-3.26722D-02-3.68299D-02 5.71764D-03-1.36834D-01
   43  -1.13147D-02 4.97341D-04-3.36534D-03 3.23964D-02-2.48840D-02 4.27334D-02-1.65787D-02 1.02229D-02-1.01286D-03-3.37065D-03
   44  -5.48596D-03-1.77958D-02-7.90575D-03 1.24826D-01 1.03773D-01 9.13564D-02-4.97594D-02-2.35879D-02-8.95798D-03-5.34024D-01
   45  -1.31222D-02-4.59253D-02-5.54086D-04 3.76400D-02 1.16226D-01 8.79244D-03-2.51165D-02-3.77981D-02 4.56817D-04-1.20933D-01
   46  -8.38693D-03 1.71604D-02 1.90026D-03 2.57666D-02-5.74780D-02-1.34137D-02-9.96008D-03 1.99129D-02-1.67766D-03 1.36503D-02
   47   1.68988D-03-3.42523D-03 9.18949D-03 7.89067D-02 5.77227D-02-1.38136D-01-3.60461D-02-1.15715D-02 2.44473D-02-5.56741D-01
   48   1.21029D-02 4.10731D-02-1.38921D-02-2.97576D-02-9.43388D-02 6.56373D-02 2.64153D-02 3.01448D-02-1.65272D-02 1.87486D-01
   49   3.31998D-02 4.62953D-01-9.49587D-03 1.48791D+00 1.56621D+00 2.57117D-02-2.49632D-02 4.70674D-02-7.04589D-02-1.25504D+02
   50   7.96557D-01-1.94851D+00 6.42072D-02-1.12377D+01-1.48157D+00 1.92893D+00 8.99058D-02 1.44955D+00-1.67904D-01-3.81763D+01
   51  -3.50002D-02 1.15871D-01 2.38790D-01 1.08739D+00 1.38130D-01 2.37886D+00-6.90643D-02-1.69502D-01-4.61306D-01 1.85501D+01
   52  -1.53714D-01-3.85335D-01 5.42888D-02 8.02101D-01 3.52082D-01-5.32648D-01-1.92734D-01-2.27262D-01 9.27294D-02-4.92021D+00
   53  -2.14892D-02-5.31901D-01 4.51219D-02 2.97734D-01 1.13586D+00-3.83671D-01-2.73904D-01-9.13980D-02 7.74148D-02 8.37326D+00
   54   2.12285D-02 1.02863D-01-1.75666D-02-5.25632D-01-3.80751D-01-2.69859D+00 9.87610D-02 6.24639D-02 3.09747D-01 1.86613D-01
   55  -1.24632D+01 1.87250D+01 3.48725D-01-4.70245D+00-2.46261D+01 2.58433D+00 2.45936D+00 1.34192D+00-5.82722D-01-2.54467D+00
   56  -8.49097D+00-1.78618D+02 1.60341D+01 5.57593D+00-5.64507D+00-4.27172D-01 2.19439D+00 6.46113D-01-4.38360D-01-7.00674D-01
   57   2.59757D+00 1.20483D+01-8.70061D-01 7.77472D-02 3.99277D+00-1.30326D+00-6.50811D-01-3.13616D-01-6.58195D-01 7.35157D-01
   58   1.67013D-01 3.23736D-01-5.45024D-02-1.02146D+00-1.16903D+00 1.78582D-01 3.71748D-01 3.80555D-01-7.84652D-02 2.40406D+00
   59   2.35016D-01 4.17568D-01-7.17693D-02-1.14414D+00-1.31183D+00 2.32183D-01 5.16065D-01 3.72736D-01-1.01845D-01 2.79420D+00
   60  -3.95509D-02-7.33182D-02 1.98308D-02 1.54442D-01 2.10723D-01-5.15160D-01-7.90438D-02-7.28667D-02 8.30376D-02-5.30242D-01


             11          12          13          14          15          16          17          18          19          20
   ----- ----- ----- ----- -----
   11   7.39747D+01
   12  -3.68486D+00 1.56054D+01
   13   1.99955D+01 3.40267D+00 8.90530D+01
   14  -2.57558D+01-9.15847D-01-5.96283D+00 7.13523D+01
   15  -1.10187D+00-6.50424D+00-1.01167D+01-4.31678D+00 1.44042D+01
   16   4.77247D+00-2.52136D-01-1.04550D+01-6.23040D+00 9.95058D-01 8.23936D+01
   17  -5.74966D+00-2.32008D-02-9.26709D+00-2.82924D+01 3.16974D+00-1.73456D+01 9.05348D+01
   18  -1.20154D-01 6.11517D-01 1.29776D+00 2.72563D+00-7.64787D+00-7.40742D+00-3.96554D+00 2.02780D+01
   19  -1.24094D+00-1.88398D-02-3.02995D-01 3.21409D+00-1.13280D-01-4.38989D+01 2.05155D+01 3.56844D+00 5.19965D+01
   20   3.87457D-01 2.42440D-01 6.26507D+00-6.13721D+00-2.45752D-01 2.50100D+01-2.59673D+01-1.54774D+00-1.38717D+01 4.19716D+01
   21   1.58174D-01 1.93165D-01-3.94740D-01 1.92555D-01 9.58408D-01 3.18296D+00-9.75564D-01-5.09487D+00-5.30314D+00-1.34654D+00
   22  -4.23941D-02-3.24489D-02 8.37664D-01-3.77454D-03 9.07207D-03-1.92787D+01-5.62456D+00 1.82620D+00-4.98150D+00 2.02953D-01
   23  -7.16096D-02-2.09190D-02-1.97728D+00-3.22538D-01 4.50130D-01-8.00756D+00-1.33506D+01 1.58774D+00 8.56384D-01-1.06346D-01
   24  -3.08584D-02-2.24263D-01 1.60463D-01 1.77238D-01 9.56835D-01 1.90685D+00 1.16374D+00-1.01540D+01 1.04780D+00 9.20050D-02
   25   1.88150D-01 5.73255D-02 7.67363D-01-1.14668D+00 4.67533D-02-2.72377D+00 9.66968D-01 1.04370D-01-1.63471D+00-7.35383D+00
   26   1.29602D-01 1.27426D-02 1.59725D-02-2.05588D-01 5.56287D-03-3.29849D+00-2.89132D+00 5.18683D-01-4.52255D-01-3.59874D+00
   27  -9.60194D-03-4.12137D-03 2.83238D-02 7.98462D-02 1.15899D-01 4.07026D-01 5.98027D-01 3.28555D-01 4.44634D-01 1.09978D+00
   28  -1.56077D-02-3.93403D-03-5.19894D-02 8.25088D-02-1.66015D-02-8.94186D-02-2.69044D-01-5.63949D-03-4.77711D-02 3.05584D-02
   29  -2.19678D-02-6.85482D-03-1.35800D-01 1.32671D-01 2.40690D-02 5.04974D-01-5.47114D-01-8.78646D-02 7.72109D-02 7.28247D-01
   30  -5.14071D-02-7.73330D-03-3.97396D-02 1.97269D-01-2.20269D-02 3.13704D-01-1.24042D-01-3.42919D-03 1.06706D-01 8.08679D-01
   31   7.90704D-03 5.05140D-04-3.83982D-02-1.11762D-02 3.11447D-03 1.75740D-01 3.72434D-03-1.50271D-02-4.54935D-02 1.03631D-01
   32  -5.65017D-03-2.97830D-03-1.96589D-02 1.56953D-02 2.09696D-02 1.36714D-01 1.17732D-02-8.73747D-02-7.57408D-02-1.02617D-02
   33   7.50712D-03 2.20606D-03 9.41974D-03-2.56646D-02-1.75788D-03-3.22179D-02 9.95538D-02-4.44622D-03-9.44433D-02-1.84246D-01
   34  -1.32823D-02-3.26756D-03 1.86322D-02 3.27601D-02-1.11520D-02-2.13581D-01 2.38199D-02 8.59814D-03 5.24301D-02-1.17622D-01
   35   9.12235D-03 2.97424D-03 2.90741D-02-5.18872D-02 1.99468D-02-1.74230D-01 7.23544D-02 5.41139D-02-1.07897D-01-4.45266D-01
   36   1.45526D-02 5.77248D-03 4.60465D-02-6.92961D-02-8.42275D-03-2.15631D-01 1.64495D-01 5.68654D-02-6.72647D-02-4.77104D-01
   37   1.47579D-03 2.15578D-04-2.29152D-02 2.81704D-03 3.16168D-03 4.48257D-02-8.39019D-02 5.89122D-02-8.15427D-03 6.00523D-03
   38   5.06277D-03-9.69215D-04-2.60150D-02-5.17529D-03 1.05887D-02 5.34851D-02-1.01730D-01-2.75342D-02-3.65269D-03 2.43915D-02
   39   2.63845D-02 7.16476D-04-7.35140D-02-7.53594D-02 4.18592D-02 8.15890D-02-2.76601D-01-8.70218D-02-8.55507D-02-2.85675D-01
   40   1.35389D-04 4.10756D-03-4.45472D-02 8.56156D-02 3.12801D-02-1.21313D+00-4.98605D-01 4.44388D-01-6.01295D-01-1.45390D+00
   41   1.15231D-02 7.07332D-04-4.30292D-01 8.79495D-02-2.29566D-02 1.13124D+00-1.81682D+00 1.66520D-01 2.63492D-01 1.01044D+00
   42   6.03762D-02 1.80007D-02 4.99070D-03-2.51490D-01-9.85446D-03-4.55939D-01-2.65547D-01 1.02514D-01-3.80548D-01-1.44627D+00
   43   7.23120D-02 1.29197D-01 1.51972D-01 2.35685D-02-6.08571D-01-4.56953D+00 2.44380D+00 1.02774D+01-5.44950D-01-5.30708D-01
   44   1.76398D-01 2.43966D-01 3.05527D-01-9.87041D-01-5.00943D-01-8.91852D-01 3.36915D+00 6.63253D+00-8.63573D-01 3.32409D-01
   45  -1.54082D-02 8.12247D-02-6.78808D-02-2.39026D-01 1.34266D-01 6.29901D-01-2.41334D-01-2.37396D-01-7.76266D-01 2.84166D-01
   46   7.93872D-02-8.73448D-02 4.50280D-01 2.09945D-01 4.34550D-01-7.52759D+00 2.18516D+00-7.05554D+00 2.37274D-02-6.59192D-01
   47   7.62378D-02-1.01322D-01 5.05747D-01-7.66472D-01 4.55404D-01-3.20029D+00 3.06663D+00-5.84491D+00-7.23869D-01 4.60291D-01
   48   3.23934D-02 9.53976D-02-6.30458D-02 1.99256D-01-1.61852D-01 3.01025D+00-6.46404D-01 3.23085D+00 7.65257D-01-1.01740D-01
   49  -3.66074D+01 1.84057D+01-3.09842D+00-6.84096D+00 1.42233D+00 1.68288D-01 2.21172D+00-7.05960D-01 3.80462D-01-1.07850D+00
   50  -3.54068D+01 6.97900D+00 8.83329D+00 3.23148D+00-1.26538D+00-1.20519D-01 1.50755D+00-4.11505D-01 3.62770D-02-3.01305D-01
   51   6.76706D+00-1.91294D+01 7.69116D-02 8.98454D-01 2.79640D+00-5.23313D-01-7.32292D-01-3.28681D+00-2.11809D-02 1.72965D-01
   52  -2.97580D+00 1.15139D+00-1.21662D+02-4.07261D+01 1.83510D+01 2.66078D+00 2.16104D+00-4.16508D-01-5.10874D-02 1.71870D-01
   53   4.61582D+00-1.42651D+00-3.91426D+01-3.56413D+01 7.24254D+00-1.07021D+01-5.14966D+00 2.05241D+00-2.18239D-01 1.62683D+00
   54   1.50186D-01 1.51456D+00 1.81662D+01 7.43435D+00-1.78146D+01 7.14405D-01 2.69523D-01 9.63685D-01-4.86940D-02-2.34499D-01
   55  -6.82606D-01 7.27522D-01-1.29195D-01 4.56799D-01-4.88161D-02 1.35432D-01-1.40156D-01-2.25512D-02-4.29756D-02 8.82531D-02
   56   1.67399D-01 2.57385D-01-4.01807D-02 4.19044D-01-4.52886D-02-7.79446D-02-1.24029D-01 1.33619D-02-1.73306D-02 2.56227D-02
   57   2.57122D-01 1.93057D+00-3.12386D-03-1.19483D-01-1.71226D-01-2.88560D-02 2.25923D-02-9.85362D-02 9.47333D-03-1.65798D-02
   58  -2.26938D-01-3.14788D-01-6.65325D+00 5.01535D+00 9.65255D-01 1.75587D+01 4.54190D+00-2.51497D+00-3.42538D+01-1.70678D+01
   59  -1.31885D+00-2.76180D-01-4.57905D+00 6.82579D+00 3.37371D-01 1.73081D+01-3.24865D+01 7.22417D-01-2.21581D+01-4.97061D+01
   60   1.46336D-01 8.66949D-02 1.63638D+00-8.81439D-01 3.24961D+00-2.89989D+00 2.02296D+00 3.46026D+00 4.41438D+00 5.98101D+00


             21          22          23          24          25          26          27          28          29          30
   ----- ----- ----- ----- -----
   21   4.91491D+00
   22   1.22625D+00 6.66604D+01
   23   5.57436D-02-8.77393D+00 6.20680D+01
   24   2.97009D+00 2.39820D+00 1.80456D+00 7.07904D+01
   25   8.34526D-01-8.28957D+00 3.11846D+00-2.68616D-01 1.93725D+01
   26   3.85179D-01 8.99051D+00-2.84906D+01-8.14273D-01 3.10613D+00 6.50439D+01
   27   7.10383D-01-7.29740D-01 5.86301D-01-1.09317D+01 5.59125D-02-6.48335D+00 7.03813D+01
   28   1.81177D-01-2.09532D-01 1.12322D+00 1.41345D+00-8.27860D+00-4.64820D+00-7.62233D+00 7.00214D+01
   29  -5.27535D-02-1.73620D+00-2.25530D+00-2.65920D+00-1.70831D+00-1.52574D+01-8.40628D+00-2.04834D+00 7.08341D+01
   30  -1.03920D-01-1.81635D-01-7.20285D-01 3.64543D-01-3.38683D+00-7.58564D+00-2.24270D+01-2.20847D+00-4.33056D+00 6.85881D+01
   31   5.53309D-02 1.07755D-01 5.22442D-02-5.46396D-01 4.51782D+00-1.27134D+00-5.07178D+00-8.59272D+01 1.01481D+01 5.74636D+01
   32   7.37900D-02 1.69993D-01-2.25594D-01-4.95388D-01 3.67265D+00-5.66231D-01-5.56791D+00 9.08301D+00-2.37468D+01-6.36358D+00
   33   2.76843D-02 4.57301D-01 1.30133D-01-4.93822D-01 3.86479D+00-1.56355D+00-6.22607D+00 5.52374D+01-7.15495D+00-7.01313D+01
   34   2.23609D-02 7.23897D-01 6.34478D-01 5.30819D-01-1.35727D+00 1.52935D-01-1.52120D+00-9.19482D+01 3.78855D+01-3.87890D+01
   35   6.73491D-02-7.86756D-01 1.14350D+00-6.21546D-01-6.62199D+00 1.64571D+00-5.59553D+00 3.95879D+01-4.29199D+01 2.35586D+01
   36   9.27639D-02 6.42769D-02 1.29713D+00 6.63013D-01-7.60007D+00 2.57592D+00-5.71338D+00-3.74525D+01 2.07067D+01-4.35330D+01
   37  -1.09689D-02-3.95750D-01 3.29437D-01-1.49962D-02-7.01753D-01-3.02879D+00 4.08889D-01-3.07671D+01-2.80227D+01 1.08449D+01
   38   2.47606D-02-4.93510D-01-1.64321D-01-3.63293D-01-1.04236D+00-4.56017D+00 1.59874D+00-2.82061D+01-1.15498D+02 3.44651D+01
   39   8.97239D-02-1.20214D+00-2.04500D-01-1.11792D+00-3.04551D+00-1.14936D+01 1.93676D+00 1.16276D+01 3.86439D+01-3.52211D+01
   40  -5.26093D-01-6.83407D-01 6.27016D+00-6.33702D+00-1.11726D+01-1.91643D+01 3.35052D+01-4.11831D-01 2.05845D+00-6.36338D+00
   41  -1.34265D-01-3.60487D+00-5.51763D+00 1.09264D+01-9.85254D+00-5.15662D+01 5.85009D+01 9.81054D-01 3.71146D+00-8.26120D+00
   42   1.44597D-01 1.83822D+00-3.16929D+00 2.58877D+00 1.86972D+01 6.05423D+01-1.34051D+02 3.93116D+00 4.19122D+00-6.14564D+00
   43  -1.25477D+00-3.38800D+01 1.11271D+01 3.68346D+01 5.77489D-03 8.08312D-01 1.56629D+00-1.97662D-01-2.13705D-01-8.31897D-02
   44  -8.20733D-01 9.50262D+00-2.66195D+01-2.29593D+01 4.53382D+00-4.74576D+00-1.05227D+01 1.53401D+00-6.74999D-01 5.21074D-01
   45  -2.83347D-01 3.61845D+01-2.63078D+01-1.11050D+02-6.07350D-01 1.44535D+00 2.00256D+00-3.49841D-01 6.22095D-02-2.58215D-01
   46   1.03126D+00-7.31251D+01 1.71719D+01-5.44653D+01-3.89604D-01 4.56813D-01-8.24253D-01 5.32583D-01-5.32167D-01 1.28683D-01
   47   9.24471D-01 1.49141D+01-2.47191D+01 1.46363D+01 8.07525D+00-4.44442D+00 7.86428D+00 2.49519D-01 9.68645D-01 1.28473D+00
   48  -9.03615D-01-5.41223D+01 1.67461D+01-7.38727D+01 5.16082D-01-5.19456D-01 1.33549D+00 6.24401D-01-6.60327D-01 5.45740D-01
   49   6.52119D-02 7.43653D-02-4.52652D-02 6.06712D-02-3.94076D-01-2.04159D-01 2.47334D-02 4.02699D-02 5.34665D-02 1.01640D-01
   50   3.71196D-02 4.87315D-02-3.08734D-01 7.71149D-02-1.42075D-01-3.00774D-02 3.27635D-03-1.57927D-03 1.11298D-02-8.17072D-03
   51   1.31946D-01 9.79757D-02 8.00141D-02 4.69846D-01 5.84306D-02 2.82929D-02-4.08019D-02 4.30117D-03-6.59018D-03-6.93380D-03
   52  -1.00095D-01-1.30954D-01 4.20335D-01 1.31036D-01 7.60844D-02 1.71007D-01-1.72893D-02 1.64011D-05-3.03973D-03-5.06370D-02
   53  -1.69463D-01 1.00645D+00-5.06303D-01-2.35482D-02 6.04606D-02-2.95953D-01 4.57870D-02-1.08025D-02-2.74045D-02 8.94156D-02
   54  -6.18433D-01 7.22463D-02 9.20114D-02 1.06106D+00-1.05878D-02 9.83927D-03-9.97999D-03-6.58380D-04 1.88422D-02 1.17499D-02
   55   9.31844D-05-1.72686D-02 2.93755D-04 1.94545D-03 3.37427D-02 2.41096D-02-3.56651D-03-1.62237D-03-4.96714D-03-1.17586D-02
   56   1.22681D-03 1.42416D-02-1.22355D-02-1.59200D-03-3.21823D-03-6.82823D-03 2.37957D-04 1.32288D-03 1.70868D-04 3.16918D-03
   57   1.31329D-02 4.48252D-03 2.56148D-03 1.09480D-03-1.07980D-02-6.16317D-03-1.05544D-02 2.30034D-03 5.19963D-03 9.37389D-03
   58   4.24531D+00-7.54843D+00 9.83303D+00 4.28222D-01 9.20082D+00 9.17888D+00-2.83773D+00-7.95042D-01-3.71294D+00-4.07375D+00
   59   6.15151D+00 7.03547D-01 4.48618D+00-3.33970D-02 1.38552D+01-2.45800D+00-1.84270D+00-2.10509D+00-2.95443D+00-2.82909D+00
   60  -1.67788D+01 6.13003D-01-1.74235D+00-2.08241D+00-3.42997D+00-1.23741D+00-1.08122D+01-3.10651D+00 1.00180D-01 9.21297D-01


             31          32          33          34          35          36          37          38          39          40
   ----- ----- ----- ----- -----
   31   2.98554D+02
   32  -3.02464D+01 7.35754D+01
   33  -1.99885D+02 3.56311D+01 2.55071D+02
   34  -1.62541D+01 1.47363D+01-1.83052D+01 3.20906D+02
   35  -2.97049D+00 8.82690D-01 2.95090D+00-1.39531D+02 1.48286D+02
   36   2.42139D+01-1.45234D+01 1.86949D+01 1.46008D+02-7.22128D+01 1.55191D+02
   37  -3.63381D+00-3.19354D+01 9.29661D+00 1.57373D+01 3.40489D+01-1.19328D+01 9.56570D+01
   38   5.81284D+00 1.17529D+01-4.83024D+00-8.97794D+00-8.18237D+00 3.49254D+00 1.04968D+02 4.11283D+02
   39   1.52385D+00 2.56278D+01-4.50013D+00 9.69742D+00 1.29879D+01-3.44837D+00-3.74621D+01-1.23951D+02 1.23248D+02
   40  -6.72238D-01 5.41700D-01 7.43680D-01-1.05752D+00-1.54023D+00-2.52650D+00 2.08831D+00 1.29402D+00 5.73205D-01 4.35311D+01
   41  -2.19243D+00-1.78641D+00-3.14339D+00 2.80013D-01-1.96731D+00-2.09304D+00 2.66352D-01 1.90620D+00-1.98254D+00 4.95050D+01
   42  -2.78226D+00-1.67299D+00-2.29478D+00 5.40568D-01-6.20701D-01-7.00548D-01 1.02542D+00 2.09360D+00 3.63543D+00-9.06066D+01
   43   6.02137D-02-6.47177D-03 2.73864D-02 1.08984D-01-1.69191D-01-4.47794D-02 6.15814D-02-1.03387D-01-2.34683D-02 1.36729D+00
   44  -7.10181D-01-6.53539D-01-7.40125D-01 1.47556D-02 9.28788D-02 3.87687D-01-8.13041D-03-1.17621D-01-6.74327D-01-2.24664D+00
   45   2.13783D-01 1.70417D-01 2.02868D-01 1.89800D-01-1.50936D-01 9.51926D-02 1.16031D-01-7.27573D-02 3.14978D-01-8.54921D-01
   46  -2.13988D-01-6.93299D-02-2.59634D-01 2.35932D-01-1.66800D-01 1.06112D-02 1.21666D-01-2.31160D-01-3.67146D-02-6.47909D-01
   47  -2.57969D-01 2.96840D-02-2.73068D-01-3.91286D-01-4.02913D-01-5.61562D-01 1.94115D-02 9.59241D-02 3.65579D-02 4.42338D+00
   48   4.75118D-02-7.53952D-02-1.95044D-01-6.47912D-02-4.29788D-01 1.78342D-01 4.34530D-02-2.48761D-01-1.44332D-01-8.24851D-02
   49  -1.72416D-02 4.68721D-03-2.28883D-02 2.46009D-02-2.15512D-02-3.62632D-02 1.20750D-03-9.43626D-03-4.58558D-02 3.45049D-02
   50   1.12924D-02 1.19361D-02 1.91184D-03-6.36618D-04-1.50746D-02-9.15204D-03 1.21988D-03-6.78908D-04 1.31587D-02-2.49433D-02
   51  -1.18131D-03-6.41919D-03-3.87135D-03-3.69718D-03-9.55582D-03 8.66386D-03-5.47182D-03 9.19439D-04-5.06790D-04-2.63665D-02
   52   1.89061D-02 2.88281D-03 4.22185D-03-7.14734D-03 8.33924D-03 1.31326D-02 8.66170D-03 1.05970D-02 4.58639D-02 6.30231D-02
   53  -3.18254D-02-1.39711D-02-8.40385D-03 1.80017D-02-1.99338D-02-5.76899D-03-1.74930D-02-2.63833D-02-1.10789D-01-1.09588D-01
   54   5.94345D-04-1.41849D-02 2.37146D-03-1.00466D-02-1.21146D-02-5.51895D-03-5.51474D-04 3.64541D-03-3.73444D-03 3.43493D-02
   55   3.14449D-03-3.56741D-03 9.97895D-04-2.00358D-03 5.16164D-04 5.87789D-03 1.28347D-03-9.81771D-04 4.95884D-03 9.59909D-03
   56  -6.48856D-04-1.12709D-03-9.31332D-04 1.20364D-03-5.78909D-04 6.74974D-04 4.97522D-05-1.32662D-03-2.93064D-03 4.02995D-03
   57   5.88004D-05-5.67783D-03 1.50284D-03-3.41807D-03-4.92160D-03 2.93740D-03-1.25273D-03-1.95156D-03-6.40885D-03 7.55964D-03
   58   1.18097D+00 1.24120D+00 2.30963D+00 5.63614D-01 2.15331D+00 2.58595D+00 6.63008D-02 9.22403D-02 1.56977D+00 7.41267D+00
   59  -2.88992D-01 1.00615D+00 9.25864D-01 6.89510D-01 1.00852D+00 1.49991D+00-2.42062D-01-3.50033D-01 5.01549D-01-1.92011D+00
   60  -1.01039D+00-7.63522D-01-1.63734D-01-4.37256D-01-1.31460D+00-1.34381D+00-1.45143D-01-1.56133D-01-1.12205D+00 1.21243D+01


             41          42          43          44          45          46          47          48          49          50
   ----- ----- ----- ----- -----
   41   2.06080D+02
   42  -2.22045D+02 5.08614D+02
   43  -9.96019D-01-4.98821D-02 1.18045D+02
   44   3.34222D+00-2.89515D+00-3.75352D+01 1.00760D+02
   45   1.15315D+00 2.45585D+00-1.33842D+02 9.18409D+01 3.91943D+02
   46  -7.01541D-01-2.23747D-01 1.63932D+01-3.81241D+00 1.50166D+01 2.60609D+02
   47  -2.99553D+00-1.90106D+00-7.85917D+00 3.44075D+00-6.95339D+00-6.00854D+01 9.48368D+01
   48  -6.97149D-01-3.79451D-01-2.88515D+01 8.53291D+00-1.74514D+01 1.96086D+02-5.95747D+01 2.58499D+02
   49   9.58186D-03-1.29538D-01 1.94449D-01-4.29899D-01-1.38679D-01 4.08441D-01-5.72750D-01 6.40923D-02 4.35881D+02
   50   4.19412D-02 3.30788D-02 5.83896D-02-8.39115D-01 8.15039D-02 1.26809D-01-1.36921D+00-6.00995D-02 1.36418D+02 1.21121D+02
   51   1.66012D-02 2.14970D-02-3.49701D-01 7.94499D-02-5.77857D-02 1.23446D-01 1.74744D-01-7.61545D-02-6.79887D+01-2.65479D+01
   52   8.03289D-02 5.71880D-02-3.92151D-02 3.97292D-02 5.15726D-02 4.26097D-02 9.11762D-02-8.08341D-02-1.34840D+00 1.64345D+00
   53  -2.67258D-01-1.54803D-01 3.67889D-02-1.42535D-01-1.37777D-01 1.94516D-01-8.12622D-02 8.61148D-02 2.11561D+00-4.07366D+00
   54   1.53888D-03 1.24379D-02-4.85594D-01-3.15326D-01 2.22022D-02 3.59146D-01 2.55979D-01-1.68753D-01 2.01134D+00 1.32305D+00
   55  -1.44278D-03 1.69854D-02 2.34657D-03 1.95604D-02 4.05028D-03 2.00181D-03 1.68663D-02 1.02352D-03 4.93984D-01-1.86319D+00
   56  -5.88537D-03-3.60221D-03 7.03253D-03-1.63543D-03-7.99047D-03 1.21469D-02-1.50098D-03 8.36513D-03 2.45743D-01-3.26810D-01
   57   5.41417D-03 7.26396D-03 4.20956D-03 6.83199D-03 1.45380D-02-5.63204D-03-6.10121D-03 1.61695D-02-8.13261D-02 3.12017D-01
   58  -3.99692D+00 6.05002D+00-1.20112D+00-3.21921D+00-5.51887D-01-7.44927D-01-3.84146D+00 1.59876D+00 1.89511D+00 7.65335D-01
   59  -3.97997D+00 5.23910D+00-7.10026D-01-4.35431D+00-2.35618D-01-2.48834D-01-5.20539D+00 7.66995D-01 2.12527D+00 7.11972D-01
   60   1.55434D+00-3.64512D-01 2.02067D+00 1.44850D+00 2.52914D-01-1.41729D+00 1.57214D-01 3.42814D-01-2.97494D-01-8.40442D-02


             51          52          53          54          55          56          57          58          59          60
   ----- ----- ----- ----- -----
   51   4.36170D+01
   52   2.04978D+00 4.27474D+02
   53   1.30512D+00 1.40299D+02 1.24396D+02
   54   1.40233D+01-6.65778D+01-2.72579D+01 4.57896D+01
   55   9.86272D-02 4.75689D-01-6.90897D-01 3.16023D-02 6.40942D+01
   56   5.45354D-03-1.46046D-01 7.25761D-01-2.75647D-02 8.58912D+00 7.26492D+02
   57   8.34610D-02-2.26223D-02 5.77948D-02 2.24495D-01-1.04126D+01-6.14276D+01 4.38461D+00
   58  -1.89731D-01-9.85426D-02-1.35372D+00 1.65238D-01-1.30579D-01-1.60218D-02 4.39416D-02 7.74632D+01
   59  -2.53180D-01-2.23924D-01-6.42613D-01 1.11598D-01-1.95571D-01-2.60521D-02 4.74491D-02-1.01299D+01 3.08203D+02
   60   7.92182D-01 3.93184D-02 1.88206D-01-2.92477D-02 4.57464D-02 1.06683D-02 7.68568D-02-9.89923D-01-1.91775D+01 9.06268D+01



          -------------------------------------------------
          NORMAL MODE EIGENVECTORS IN CARTESIAN COORDINATES
          -------------------------------------------------
                 (Frequencies expressed in cm-1)

                    1           2           3           4           5           6
 
 Frequency       -304.50     -284.30     -197.35     -182.65     -151.61     -130.17
 
           1    -0.01031    -0.00197     0.02360     0.01233    -0.06951     0.00761
           2    -0.00573    -0.00013     0.01960    -0.01102     0.12777    -0.00206
           3    -0.07187    -0.00685     0.16082     0.07516     0.00246    -0.00409
           4     0.00016    -0.00173    -0.00030    -0.00525    -0.02138     0.00241
           5    -0.00019     0.00213    -0.00176     0.00206    -0.01167     0.01556
           6    -0.00133     0.00092    -0.01951     0.00309     0.00690     0.00345
           7     0.01550     0.00112    -0.01733    -0.00064    -0.09114     0.01343
           8     0.00825     0.00511    -0.01487     0.01440    -0.11058     0.03039
           9     0.10632     0.00759    -0.10697    -0.04757     0.02266     0.00509
          10    -0.01064    -0.00313    -0.00257    -0.02018     0.06964    -0.00650
          11    -0.00667     0.00313    -0.00620     0.00238    -0.01294     0.01635
          12    -0.07745     0.00121    -0.07018    -0.00002    -0.00507    -0.00146
          13    -0.00207    -0.00273     0.00538    -0.01615     0.07417    -0.00317
          14    -0.00177     0.00612    -0.00253     0.00777    -0.00288     0.02390
          15    -0.01686     0.00876    -0.01544     0.03128    -0.00421     0.00837
          16    -0.00176     0.00115    -0.00239     0.00097     0.04817     0.00367
          17    -0.00098     0.00424    -0.00080     0.00175    -0.00355     0.01735
          18    -0.01060     0.00490    -0.01389     0.00479    -0.00968    -0.02886
          19     0.00163    -0.01282     0.00569    -0.01292     0.02055    -0.01596
          20     0.00080    -0.00286    -0.00016     0.00397    -0.03324     0.00511
          21     0.00677    -0.02449     0.05338    -0.12352    -0.02539    -0.03038
          22    -0.00145     0.00232    -0.01439     0.02998     0.03039    -0.00861
          23     0.00050    -0.00126     0.00946    -0.02279     0.02120     0.01160
          24    -0.00861     0.02519    -0.05381     0.09775    -0.00355    -0.08783
          25    -0.00390     0.02615    -0.02724     0.06389     0.01554     0.04846
          26    -0.00039     0.00692     0.00485    -0.01110     0.01453     0.02270
          27     0.00269    -0.02161     0.01226    -0.03585    -0.00622    -0.00453
          28     0.00288    -0.00959     0.02672    -0.06338    -0.02672    -0.04024
          29    -0.00030    -0.01850    -0.01376     0.01792     0.00356    -0.12602
          30     0.00014     0.00523     0.00364    -0.00499     0.01738     0.13482
          31    -0.00239     0.13381     0.06979    -0.15862    -0.05085    -0.11045
          32     0.02528    -0.48777    -0.05267     0.08157    -0.00643    -0.17282
          33    -0.01003     0.24382     0.05784    -0.12095    -0.00740     0.06573
          34    -0.01398     0.32374     0.06897    -0.14875    -0.04109    -0.10930
[...]
    7 O                    8.0000     1.57690361    -1.52657401     0.07284036
    8 C                    6.0000    -0.70235470    -1.60779231     0.42888110
    9 N                    7.0000    -0.28129787    -2.99023606     0.37914958
   10 C                    6.0000    -0.73574691    -3.80214404    -0.76238774
   11 H                    1.0000     0.06112146    -3.91841270    -1.49155550
   12 H                    1.0000    -1.59674633    -3.35101084    -1.24891995
   13 H                    1.0000    -1.02427768    -4.78676178    -0.41150499
   14 H                    1.0000    -0.43925529    -3.46342856     1.25476049
   15 H                    1.0000    -1.08915006    -1.33162098     1.40960825
   16 H                    1.0000    -1.46837408    -1.37024214    -0.30792064
   17 H                    1.0000    -1.39518736     1.06666145     0.26429082
   18 H                    1.0000     1.66676917     1.00938809    -0.15290577
   19 H                    1.0000     0.99267110     4.24751436    -0.33478331
   20 H                    1.0000     1.13138427    -2.49387003     0.21923560





 ===============================================================================
      Negative Nuclear Hessian Mode    5  Eigenvalue =   -114.97 cm**(-1)
 -------------------------------------------------------------------------------
   Raw step length:  0.347 angstroms ;  The Raw step for this mode is:
    1 O                    8.0000     0.00234209     0.00315331     0.00099806
    2 C                    6.0000     0.00199997     0.00869098     0.01151251
    3 O                    8.0000     0.00487961     0.01316297     0.00653146
    4 C                    6.0000     0.00069094     0.00970544     0.01615582
    5 C                    6.0000     0.00362064     0.01410989     0.03497564
    6 C                    6.0000     0.00205113     0.00880077    -0.00432981
    7 O                    8.0000    -0.01136844    -0.00075107    -0.00930501
    8 C                    6.0000    -0.01080235     0.00530372    -0.06605447
    9 N                    7.0000     0.02005837     0.01096784    -0.02097878
   10 C                    6.0000    -0.00944384    -0.06416352     0.04296940
   11 H                    1.0000    -0.03653372    -0.08141175     0.01612435
   12 H                    1.0000    -0.04166724    -0.11013544     0.05669865
   13 H                    1.0000     0.03103871    -0.05179964     0.11084376
   14 H                    1.0000     0.08327753     0.05175711     0.01448442
   15 H                    1.0000    -0.09187521     0.01751641    -0.10321958
   16 H                    1.0000     0.04303366    -0.02926174    -0.13104587
   17 H                    1.0000    -0.00291925     0.00650631    -0.01396592
   18 H                    1.0000     0.00683196     0.01866451     0.06428635
   19 H                    1.0000    -0.00565735    -0.00364504    -0.08162531
   20 H                    1.0000    -0.05692049    -0.00861566    -0.03238271


  Geometry after  100.0% step for mode  5; Step length =  0.347 angstroms 
   Maximum component (any atom: x,y, or z) displacement:  0.248
    1 O                    8.0000     0.95406957     3.32594521    -0.25857089
    2 C                    6.0000    -0.27897485     2.90612422    -0.03270138
    3 O                    8.0000    -1.25370768     3.59059524     0.04856717
    4 C                    6.0000    -0.35687199     1.42582002     0.10669620
    5 C                    6.0000     0.70973841     0.62367917     0.04629892
    6 C                    6.0000     0.57745329    -0.79984314     0.15104447
    7 O                    8.0000     1.57016717    -1.54446008     0.07262249
    8 C                    6.0000    -0.71150501    -1.58892186     0.34995310
    9 N                    7.0000    -0.27681565    -2.97177570     0.36090957
   10 C                    6.0000    -0.76396332    -3.86113413    -0.71407794
   11 H                    1.0000     0.00682955    -4.00606202    -1.46682850
   12 H                    1.0000    -1.65168724    -3.45101701    -1.19210303
   13 H                    1.0000    -1.02262364    -4.82843258    -0.29055137
   14 H                    1.0000    -0.39142533    -3.39277938     1.27401809
   15 H                    1.0000    -1.18746445    -1.28887545     1.28674061
   16 H                    1.0000    -1.41206864    -1.38262321    -0.46240585
   17 H                    1.0000    -1.36468392     1.06201572     0.24754903
   18 H                    1.0000     1.70627121     1.01580121    -0.09530394
   19 H                    1.0000     0.93409603     4.28208048    -0.41894389
   20 H                    1.0000     1.06551669    -2.51311110     0.19774871


  Geometry after -100.0% step for mode  5; Step length =  0.347 angstroms 
   Maximum component (any atom: x,y, or z) displacement:  0.248
    1 O                    8.0000     0.94938538     3.31963858    -0.26056700
    2 C                    6.0000    -0.28297478     2.88874227    -0.05572641
    3 O                    8.0000    -1.26346691     3.56426929     0.03550426
    4 C                    6.0000    -0.35825388     1.40640914     0.07438456
    5 C                    6.0000     0.70249712     0.59545939    -0.02365236
    6 C                    6.0000     0.57335103    -0.81744469     0.15970409
    7 O                    8.0000     1.59290405    -1.54295794     0.09123252
    8 C                    6.0000    -0.68990031    -1.59952930     0.48206204
    9 N                    7.0000    -0.31693238    -2.99371138     0.40286714
   10 C                    6.0000    -0.74507564    -3.73280710    -0.80001674
   11 H                    1.0000     0.07989699    -3.84323852    -1.49907721
   12 H                    1.0000    -1.56835277    -3.23074614    -1.30550033
   13 H                    1.0000    -1.08470106    -4.72483330    -0.51223890
   14 H                    1.0000    -0.55798040    -3.49629360     1.24504925
   15 H                    1.0000    -1.00371403    -1.32390828     1.49317976
   16 H                    1.0000    -1.49813596    -1.32409973    -0.20031411
   17 H                    1.0000    -1.35884541     1.04900310     0.27548087
   18 H                    1.0000     1.69260728     0.97847220    -0.22387665
   19 H                    1.0000     0.94541072     4.28937055    -0.25569327
   20 H                    1.0000     1.17935768    -2.49587977     0.26251412


  Geometry after   50.0% step for mode  5; Step length =  0.173 angstroms 
   Maximum component (any atom: x,y, or z) displacement:  0.124
    1 O                    8.0000     0.95289852     3.32436855    -0.25906992
    2 C                    6.0000    -0.27997483     2.90177874    -0.03845764
    3 O                    8.0000    -1.25614749     3.58401375     0.04530144
    4 C                    6.0000    -0.35721747     1.42096730     0.09861829
    5 C                    6.0000     0.70792809     0.61662422     0.02881110
    6 C                    6.0000     0.57642772    -0.80424352     0.15320937
    7 O                    8.0000     1.57585139    -1.54408455     0.07727500
    8 C                    6.0000    -0.70610384    -1.59157372     0.38298033
    9 N                    7.0000    -0.28684483    -2.97725962     0.37139896
   10 C                    6.0000    -0.75924140    -3.82905237    -0.73556264
   11 H                    1.0000     0.02509641    -3.96535614    -1.47489067
   12 H                    1.0000    -1.63085363    -3.39594929    -1.22045236
   13 H                    1.0000    -1.03814299    -4.80253276    -0.34597325
   14 H                    1.0000    -0.43306410    -3.41865794     1.26677588
   15 H                    1.0000    -1.14152685    -1.29763366     1.33835040
   16 H                    1.0000    -1.43358547    -1.36799234    -0.39688292
   17 H                    1.0000    -1.36322429     1.05876257     0.25453199
   18 H                    1.0000     1.70285523     1.00646896    -0.12744712
   19 H                    1.0000     0.93692470     4.28390300    -0.37813123
   20 H                    1.0000     1.09397694    -2.50880327     0.21394006


  Geometry after  -50.0% step for mode  5; Step length =  0.173 angstroms 
   Maximum component (any atom: x,y, or z) displacement:  0.124
    1 O                    8.0000     0.95055643     3.32121524    -0.26006798
    2 C                    6.0000    -0.28197480     2.89308776    -0.04997015
    3 O                    8.0000    -1.26102710     3.57085078     0.03876999
    4 C                    6.0000    -0.35790841     1.41126186     0.08246247
    5 C                    6.0000     0.70430744     0.60251433    -0.00616454
    6 C                    6.0000     0.57437659    -0.81304430     0.15753918
    7 O                    8.0000     1.58721983    -1.54333347     0.08658001
    8 C                    6.0000    -0.69530149    -1.59687744     0.44903480
    9 N                    7.0000    -0.30690320    -2.98822746     0.39237775
   10 C                    6.0000    -0.74979756    -3.76488886    -0.77853204
   11 H                    1.0000     0.06163013    -3.88394439    -1.49101503
   12 H                    1.0000    -1.58918639    -3.28581386    -1.27715101
   13 H                    1.0000    -1.06918170    -4.75073312    -0.45681702
   14 H                    1.0000    -0.51634163    -3.47041505     1.25229146
   15 H                    1.0000    -1.04965163    -1.31515007     1.44156997
   16 H                    1.0000    -1.47661913    -1.33873060    -0.26583705
   17 H                    1.0000    -1.36030504     1.05225625     0.26849791
   18 H                    1.0000     1.69602327     0.98780445    -0.19173347
   19 H                    1.0000     0.94258205     4.28754804    -0.29650592
   20 H                    1.0000     1.15089743    -2.50018760     0.24632277


  Geometry after   80.8% step for mode  5; Step length =  0.280 angstroms 
   Maximum component (any atom: x,y, or z) displacement:  0.200
    1 O                    8.0000     0.95361900     3.32533858    -0.25876290
    2 C                    6.0000    -0.27935960     2.90445227    -0.03491614
    3 O                    8.0000    -1.25464641     3.58806297     0.04731066
    4 C                    6.0000    -0.35700492     1.42395290     0.10358817
    5 C                    6.0000     0.70904187     0.62096473     0.03957035
    6 C                    6.0000     0.57705869    -0.80153622     0.15187743
    7 O                    8.0000     1.57235422    -1.54431559     0.07441258
    8 C                    6.0000    -0.70942687    -1.58994218     0.36266057
    9 N                    7.0000    -0.28067445    -2.97388568     0.36494544
   10 C                    6.0000    -0.76214653    -3.84879045    -0.72234433
   11 H                    1.0000     0.01385786    -3.99040014    -1.46993048
   12 H                    1.0000    -1.64367136    -3.42982931    -1.20301064
   13 H                    1.0000    -1.02859482    -4.81846744    -0.31187534
   14 H                    1.0000    -0.40744614    -3.40273634     1.27123160
   15 H                    1.0000    -1.16978963    -1.29224523     1.30659785
   16 H                    1.0000    -1.42034740    -1.37699388    -0.43719543
   17 H                    1.0000    -1.36412232     1.06076405     0.25023577
   18 H                    1.0000     1.70495689     1.01221056    -0.10767126
   19 H                    1.0000     0.93518438     4.28278170    -0.40324093
   20 H                    1.0000     1.07646698    -2.51145363     0.20397845


  Geometry after  -80.8% step for mode  5; Step length =  0.280 angstroms 
   Maximum component (any atom: x,y, or z) displacement:  0.200
    1 O                    8.0000     0.94983595     3.32024521    -0.26037500
    2 C                    6.0000    -0.28259003     2.89041423    -0.05351165
    3 O                    8.0000    -1.26252817     3.56680157     0.03676077
    4 C                    6.0000    -0.35812096     1.40827626     0.07749260
    5 C                    6.0000     0.70319365     0.59817383    -0.01692380
    6 C                    6.0000     0.57374562    -0.81575161     0.15887113
    7 O                    8.0000     1.59071701    -1.54310243     0.08944243
    8 C                    6.0000    -0.69197846    -1.59850898     0.46935457
    9 N                    7.0000    -0.31307358    -2.99160140     0.39883127
   10 C                    6.0000    -0.74689244    -3.74515078    -0.79175035
   11 H                    1.0000     0.07286868    -3.85890040    -1.49597523
   12 H                    1.0000    -1.57636866    -3.25193384    -1.29459272
   13 H                    1.0000    -1.07872988    -4.73479844    -0.49091493
   14 H                    1.0000    -0.54195958    -3.48633664     1.24783574
   15 H                    1.0000    -1.02138885    -1.32053849     1.47332252
   16 H                    1.0000    -1.48985720    -1.32972906    -0.22552453
   17 H                    1.0000    -1.35940701     1.05025477     0.27279413
   18 H                    1.0000     1.69392161     0.98206285    -0.21150933
   19 H                    1.0000     0.94432237     4.28866933    -0.27139623
   20 H                    1.0000     1.16840739    -2.49753724     0.25628438


  Geometry after   40.4% step for mode  5; Step length =  0.140 angstroms 
   Maximum component (any atom: x,y, or z) displacement:  0.100
    1 O                    8.0000     0.95267324     3.32406524    -0.25916592
    2 C                    6.0000    -0.28016720     2.90094276    -0.03956502
    3 O                    8.0000    -1.25661685     3.58274762     0.04467319
    4 C                    6.0000    -0.35728393     1.42003374     0.09706427
    5 C                    6.0000     0.70757982     0.61526700     0.02544682
    6 C                    6.0000     0.57623042    -0.80509006     0.15362585
    7 O                    8.0000     1.57694492    -1.54401230     0.07817004
    8 C                    6.0000    -0.70506477    -1.59208388     0.38933407
    9 N                    7.0000    -0.28877423    -2.97831461     0.37341690
   10 C                    6.0000    -0.75833301    -3.82288053    -0.73969584
   11 H                    1.0000     0.02861056    -3.95752521    -1.47644166
   12 H                    1.0000    -1.62684568    -3.38535544    -1.22590616
   13 H                    1.0000    -1.04112858    -4.79755019    -0.35663524
   14 H                    1.0000    -0.44107450    -3.42363642     1.26538264
   15 H                    1.0000    -1.13268943    -1.29931855     1.34827902
   16 H                    1.0000    -1.43772485    -1.36517768    -0.38427771
   17 H                    1.0000    -1.36294349     1.05813673     0.25587536
   18 H                    1.0000     1.70219807     1.00467363    -0.13363078
   19 H                    1.0000     0.93746888     4.28425361    -0.37027975
   20 H                    1.0000     1.09945208    -2.50797453     0.21705493


  Geometry after  -40.4% step for mode  5; Step length =  0.140 angstroms 
   Maximum component (any atom: x,y, or z) displacement:  0.100
    1 O                    8.0000     0.95078171     3.32151855    -0.25997197
    2 C                    6.0000    -0.28178242     2.89392374    -0.04886277
    3 O                    8.0000    -1.26055773     3.57211692     0.03939824
    4 C                    6.0000    -0.35784195     1.41219542     0.08401649
    5 C                    6.0000     0.70465571     0.60387155    -0.00280026
    6 C                    6.0000     0.57457389    -0.81219776     0.15712270
    7 O                    8.0000     1.58612631    -1.54340572     0.08568497
    8 C                    6.0000    -0.69634056    -1.59636728     0.44268107
    9 N                    7.0000    -0.30497380    -2.98717247     0.39035981
   10 C                    6.0000    -0.75070596    -3.77106070    -0.77439884
   11 H                    1.0000     0.05811598    -3.89177533    -1.48946404
   12 H                    1.0000    -1.59319433    -3.29640771    -1.27169720
   13 H                    1.0000    -1.06619611    -4.75571569    -0.44615503
   14 H                    1.0000    -0.50833122    -3.46543657     1.25368470
   15 H                    1.0000    -1.05848905    -1.31346518     1.43164135
   16 H                    1.0000    -1.47247975    -1.34154527    -0.27844226
   17 H                    1.0000    -1.36058584     1.05288209     0.26715454
   18 H                    1.0000     1.69668043     0.98959978    -0.18554982
   19 H                    1.0000     0.94203787     4.28719742    -0.30435740
   20 H                    1.0000     1.14542229    -2.50101634     0.24320790


 vib:animation  F

 Task  times  cpu:       89.2s     wall:       89.3s
 Summary of allocated global arrays
-----------------------------------
  No active global arrays



                         GA Statistics for process    0
                         ------------------------------

       create   destroy   get      put      acc     scatter   gather  read&inc
calls: 1.23e+04 1.23e+04 4.03e+05 2.85e+05 8.72e+04 1441        0        0     
number of processes/call 1.00e+00 1.00e+00 1.00e+00 1.00e+00 0.00e+00
bytes total:             1.23e+09 2.29e+08 1.13e+09 3.62e+07 0.00e+00 0.00e+00
bytes remote:            0.00e+00 0.00e+00 0.00e+00 0.00e+00 0.00e+00 0.00e+00
Max memory consumed for GA by this process: 16801920 bytes
MA_summarize_allocated_blocks: starting scan ...
MA_summarize_allocated_blocks: scan completed: 0 heap blocks, 0 stack blocks
MA usage statistics:

	allocation statistics:
					      heap	     stack
					      ----	     -----
	current number of blocks	         0	         0
	maximum number of blocks	        24	        36
	current total bytes		         0	         0
	maximum total bytes		     80096	  67012424
	maximum total K-bytes		        81	     67013
	maximum total M-bytes		         1	        68


                                NWChem Input Module
                                -------------------





                                     CITATION
                                     --------
                Please cite the following reference when publishing
                           results obtained with NWChem:

                 M. Valiev, E.J. Bylaska, N. Govind, K. Kowalski,
              T.P. Straatsma, H.J.J. van Dam, D. Wang, J. Nieplocha,
                        E. Apra, T.L. Windus, W.A. de Jong
                 "NWChem: a comprehensive and scalable open-source
                  solution for large scale molecular simulations"
                      Comput. Phys. Commun. 181, 1477 (2010)
                           doi:10.1016/j.cpc.2010.04.018

                              AUTHORS & CONTRIBUTORS
                              ----------------------
      E. J. Bylaska, W. A. de Jong, N. Govind, K. Kowalski, T. P. Straatsma,
     M. Valiev, H. J. J. van Dam, D. Wang, E. Apra, T. L. Windus, J. Hammond,
     J. Autschbach, P. Nichols, S. Hirata, M. T. Hackler, Y. Zhao, P.-D. Fan,
      R. J. Harrison, M. Dupuis, D. M. A. Smith, K. Glaesemann, J. Nieplocha,
      V. Tipparaju, M. Krishnan, A. Vazquez-Mayagoitia, L. Jensen, M. Swart,
      Q. Wu, T. Van Voorhis, A. A. Auer, M. Nooijen, L. D. Crosby, E. Brown,
             G. Cisneros, G. I. Fann, H. Fruchtl, J. Garza, K. Hirao,
        R. Kendall, J. A. Nichols, K. Tsemekhman, K. Wolinski, J. Anchell,
       D. Bernholdt, P. Borowski, T. Clark, D. Clerc, H. Dachsel, M. Deegan,
        K. Dyall, D. Elwood, E. Glendening, M. Gutowski, A. Hess, J. Jaffe,
        B. Johnson, J. Ju, R. Kobayashi, R. Kutteh, Z. Lin, R. Littlefield,
    X. Long, B. Meng, T. Nakajima, S. Niu, L. Pollack, M. Rosing, G. Sandrone,
       M. Stave, H. Taylor, G. Thomas, J. H. van Lenthe, A. Wong, Z. Zhang.

 Total times  cpu:       89.2s     wall:       89.4s
