 Entering Gaussian System, Link 0=g09
 Initial command:
 /apps/gaussian/g09/l1.exe /scratch_l/henon/h2n3_6338/Gau-6354.inp -scrdir=/scratch_l/henon/h2n3_6338/
 Entering Link 1 = /apps/gaussian/g09/l1.exe PID=      6355.
  
 Copyright (c) 1988,1990,1992,1993,1995,1998,2003,2009, Gaussian, Inc.
                  All Rights Reserved.
  
 This is part of the Gaussian(R) 09 program.  It is based on
 the Gaussian(R) 03 system (copyright 2003, Gaussian, Inc.),
 the Gaussian(R) 98 system (copyright 1998, Gaussian, Inc.),
 the Gaussian(R) 94 system (copyright 1995, Gaussian, Inc.),
 the Gaussian 92(TM) system (copyright 1992, Gaussian, Inc.),
 the Gaussian 90(TM) system (copyright 1990, Gaussian, Inc.),
 the Gaussian 88(TM) system (copyright 1988, Gaussian, Inc.),
 the Gaussian 86(TM) system (copyright 1986, Carnegie Mellon
 University), and the Gaussian 82(TM) system (copyright 1983,
 Carnegie Mellon University). Gaussian is a federally registered
 trademark of Gaussian, Inc.
  
 This software contains proprietary and confidential information,
 including trade secrets, belonging to Gaussian, Inc.
  
 This software is provided under written license and may be
 used, copied, transmitted, or stored only in accord with that
 written license.
  
 The following legend is applicable only to US Government
 contracts under FAR:
  
                    RESTRICTED RIGHTS LEGEND
  
 Use, reproduction and disclosure by the US Government is
 subject to restrictions as set forth in subparagraphs (a)
 and (c) of the Commercial Computer Software - Restricted
 Rights clause in FAR 52.227-19.
  
 Gaussian, Inc.
 340 Quinnipiac St., Bldg. 40, Wallingford CT 06492
  
  
 ---------------------------------------------------------------
 Warning -- This program may not be used in any manner that
 competes with the business of Gaussian, Inc. or will provide
 assistance to any competitor of Gaussian, Inc.  The licensee
 of this program is prohibited from giving any competitor of
 Gaussian, Inc. access to this program.  By using this program,
 the user acknowledges that Gaussian, Inc. is engaged in the
 business of creating and licensing software in the field of
 computational chemistry and represents and warrants to the
 licensee that it is not a competitor of Gaussian, Inc. and that
 it will not use this program in any manner prohibited above.
 ---------------------------------------------------------------
  

 Cite this work as:
 Gaussian 09, Revision A.02,
 M. J. Frisch, G. W. Trucks, H. B. Schlegel, G. E. Scuseria, 
 M. A. Robb, J. R. Cheeseman, G. Scalmani, V. Barone, B. Mennucci, 
 G. A. Petersson, H. Nakatsuji, M. Caricato, X. Li, H. P. Hratchian, 
 A. F. Izmaylov, J. Bloino, G. Zheng, J. L. Sonnenberg, M. Hada, 
 M. Ehara, K. Toyota, R. Fukuda, J. Hasegawa, M. Ishida, T. Nakajima, 
 Y. Honda, O. Kitao, H. Nakai, T. Vreven, J. A. Montgomery, Jr., 
 J. E. Peralta, F. Ogliaro, M. Bearpark, J. J. Heyd, E. Brothers, 
 K. N. Kudin, V. N. Staroverov, R. Kobayashi, J. Normand, 
 K. Raghavachari, A. Rendell, J. C. Burant, S. S. Iyengar, J. Tomasi, 
 M. Cossi, N. Rega, J. M. Millam, M. Klene, J. E. Knox, J. B. Cross, 
 V. Bakken, C. Adamo, J. Jaramillo, R. Gomperts, R. E. Stratmann, 
 O. Yazyev, A. J. Austin, R. Cammi, C. Pomelli, J. W. Ochterski, 
 R. L. Martin, K. Morokuma, V. G. Zakrzewski, G. A. Voth, 
 P. Salvador, J. J. Dannenberg, S. Dapprich, A. D. Daniels, 
 O. Farkas, J. B. Foresman, J. V. Ortiz, J. Cioslowski, 
 and D. J. Fox, Gaussian, Inc., Wallingford CT, 2009.
 
 ******************************************
 Gaussian 09:  AM64L-G09RevA.02 11-Jun-2009
                25-Apr-2014 
 ******************************************
 %NPROC=12
 Will use up to   12 processors via shared memory.
 %MEM=500MB
 ------------------------------------------------------
 #P M06 6-311G** OPT FREQ # GFINPUT IOP(6/7=3) POP=FULL
 ------------------------------------------------------
 1/14=-1,18=20,19=15,26=3,38=1/1,3;
 2/9=110,12=2,17=6,18=5,40=1/2;
 3/5=4,6=6,7=101,11=2,16=1,24=10,25=1,30=1,71=1,74=-54/1,2,3;
 4//1;
 5/5=2,38=5/2;
 6/7=3,28=1/1;
 7//1,2,3,16;
 1/14=-1,18=20,19=15/3(2);
 2/9=110/2;
 99//99;
 2/9=110/2;
 3/5=4,6=6,7=101,11=2,16=1,25=1,30=1,71=1,74=-54/1,2,3;
 4/5=5,16=3/1;
 5/5=2,38=5/2;
 7//1,2,3,16;
 1/14=-1,18=20,19=15/3(-5);
 2/9=110/2;
 6/7=3,19=2,28=1/1;
 99/9=1/99;
 Leave Link    1 at Fri Apr 25 16:43:11 2014, MaxMem=   65536000 cpu:       0.3
 (Enter /apps/gaussian/g09/l101.exe)
 --------------------
 intermediate product
 --------------------
 Symbolic Z-matrix:
 Charge =  0 Multiplicity = 2
 n
 n                    1    nn2
 n                    1    nn3      2    nnn3
 h                    3    hn4      1    hnn4     2    dih4     0
 h                    3    hn5      1    hnn5     2    dih5     0
       Variables:
  nn2                   1.418                    
  nn3                   1.418                    
  nnn3                160.                       
  hn4                   1.008                    
  hnn4                109.471                    
  dih4                180.                       
  hn5                   1.                       
  hnn5                109.471                    
  dih5                300.                       
 
     2 tetrahedral angles replaced.
 NAtoms=      5 NQM=      5 NQMF=      0 NMic=      0 NMicF=      0 NTot=      5.
                    Isotopes and Nuclear Properties:
 (Nuclear quadrupole moments (NQMom) in fm**2, nuclear magnetic moments (NMagM)
  in nuclear magnetons)

  Atom         1           2           3           4           5
 IAtWgt=          14          14          14           1           1
 AtmWgt=  14.0030740  14.0030740  14.0030740   1.0078250   1.0078250
 NucSpn=           2           2           2           1           1
 AtZEff=   0.0000000   0.0000000   0.0000000   0.0000000   0.0000000
 NQMom=    2.0440000   2.0440000   2.0440000   0.0000000   0.0000000
 NMagM=    0.4037610   0.4037610   0.4037610   2.7928460   2.7928460
 Leave Link  101 at Fri Apr 25 16:43:11 2014, MaxMem=   65536000 cpu:       0.6
 (Enter /apps/gaussian/g09/l103.exe)

 GradGradGradGradGradGradGradGradGradGradGradGradGradGradGradGradGradGrad
 Berny optimization.
 Initialization pass.
                           ----------------------------
                           !    Initial Parameters    !
                           ! (Angstroms and Degrees)  !
 --------------------------                            --------------------------
 ! Name  Definition              Value          Derivative Info.                !
 --------------------------------------------------------------------------------
 ! R1    R(1,2)                  1.418          estimate D2E/DX2                !
 ! R2    R(1,3)                  1.418          estimate D2E/DX2                !
 ! R3    R(3,4)                  1.008          estimate D2E/DX2                !
 ! R4    R(3,5)                  1.0            estimate D2E/DX2                !
 ! A1    A(2,1,3)              160.0            estimate D2E/DX2                !
 ! A2    A(1,3,4)              109.4712         estimate D2E/DX2                !
 ! A3    A(1,3,5)              109.4712         estimate D2E/DX2                !
 ! A4    A(4,3,5)              109.4712         estimate D2E/DX2                !
 ! D1    D(2,1,3,4)            180.0            estimate D2E/DX2                !
 ! D2    D(2,1,3,5)            -60.0            estimate D2E/DX2                !
 --------------------------------------------------------------------------------
 Trust Radius=3.00D-01 FncErr=1.00D-07 GrdErr=1.00D-06
 Number of steps in this run=  20 maximum allowed number of steps= 100.
 GradGradGradGradGradGradGradGradGradGradGradGradGradGradGradGradGradGrad

 Leave Link  103 at Fri Apr 25 16:43:11 2014, MaxMem=   65536000 cpu:       0.0
 (Enter /apps/gaussian/g09/l202.exe)
                          Input orientation:                          
 ---------------------------------------------------------------------
 Center     Atomic      Atomic             Coordinates (Angstroms)
 Number     Number       Type             X           Y           Z
 ---------------------------------------------------------------------
      1          7           0        0.000000    0.000000    0.000000
      2          7           0        0.000000    0.000000    1.418000
      3          7           0        0.484985    0.000000   -1.332484
      4          1           0       -0.293135    0.000000   -1.973260
      5          1           0        1.041967    0.816497   -1.484485
 ---------------------------------------------------------------------
                    Distance matrix (angstroms):
                    1          2          3          4          5
     1  N    0.000000
     2  N    1.418000   0.000000
     3  N    1.418000   2.792915   0.000000
     4  H    1.994915   3.403906   1.008000   0.000000
     5  H    1.988984   3.190107   1.000000   1.639532   0.000000
 Stoichiometry    H2N3(2)
 Framework group  C1[X(H2N3)]
 Deg. of freedom     9
 Full point group                 C1      NOp   1
 Largest Abelian subgroup         C1      NOp   1
 Largest concise Abelian subgroup C1      NOp   1
                         Standard orientation:                         
 ---------------------------------------------------------------------
 Center     Atomic      Atomic             Coordinates (Angstroms)
 Number     Number       Type             X           Y           Z
 ---------------------------------------------------------------------
      1          7           0        0.152630   -0.153253    0.048879
      2          7           0        1.551565    0.070177   -0.012622
      3          7           0       -1.239117    0.056675   -0.123441
      4          1           0       -1.747453   -0.717961    0.273546
      5          1           0       -1.508093    0.902773    0.336744
 ---------------------------------------------------------------------
 Rotational constants (GHZ):    230.1617507      8.2725388      8.0888081
 Leave Link  202 at Fri Apr 25 16:43:11 2014, MaxMem=   65536000 cpu:       0.2
 (Enter /apps/gaussian/g09/l301.exe)
 Standard basis: 6-311G(d,p) (5D, 7F)
 Ernie: Thresh=  0.10000D-02 Tol=  0.10000D-05 Strict=F.
 AO basis set in the form of general basis input (Overlap normalization):
      1 0
 S   6 1.00       0.000000000000
      0.6293480000D+04  0.1969788147D-02
      0.9490440000D+03  0.1496128592D-01
      0.2187760000D+03  0.7350053084D-01
      0.6369160000D+02  0.2489367658D+00
      0.1882820000D+02  0.6024594331D+00
      0.2720230000D+01  0.2562017589D+00
 SP   3 1.00       0.000000000000
      0.3063310000D+02  0.1119060795D+00  0.3831191864D-01
      0.7026140000D+01  0.9216666549D+00  0.2374031155D+00
      0.2112050000D+01 -0.2569191826D-02  0.8175923978D+00
 SP   1 1.00       0.000000000000
      0.6840090000D+00  0.1000000000D+01  0.1000000000D+01
 SP   1 1.00       0.000000000000
      0.2008780000D+00  0.1000000000D+01  0.1000000000D+01
 D   1 1.00       0.000000000000
      0.9130000000D+00  0.1000000000D+01
 ****
      2 0
 S   6 1.00       0.000000000000
      0.6293480000D+04  0.1969788147D-02
      0.9490440000D+03  0.1496128592D-01
      0.2187760000D+03  0.7350053084D-01
      0.6369160000D+02  0.2489367658D+00
      0.1882820000D+02  0.6024594331D+00
      0.2720230000D+01  0.2562017589D+00
 SP   3 1.00       0.000000000000
      0.3063310000D+02  0.1119060795D+00  0.3831191864D-01
      0.7026140000D+01  0.9216666549D+00  0.2374031155D+00
      0.2112050000D+01 -0.2569191826D-02  0.8175923978D+00
 SP   1 1.00       0.000000000000
      0.6840090000D+00  0.1000000000D+01  0.1000000000D+01
 SP   1 1.00       0.000000000000
      0.2008780000D+00  0.1000000000D+01  0.1000000000D+01
 D   1 1.00       0.000000000000
      0.9130000000D+00  0.1000000000D+01
 ****
      3 0
 S   6 1.00       0.000000000000
      0.6293480000D+04  0.1969788147D-02
      0.9490440000D+03  0.1496128592D-01
      0.2187760000D+03  0.7350053084D-01
      0.6369160000D+02  0.2489367658D+00
      0.1882820000D+02  0.6024594331D+00
      0.2720230000D+01  0.2562017589D+00
 SP   3 1.00       0.000000000000
      0.3063310000D+02  0.1119060795D+00  0.3831191864D-01
      0.7026140000D+01  0.9216666549D+00  0.2374031155D+00
      0.2112050000D+01 -0.2569191826D-02  0.8175923978D+00
 SP   1 1.00       0.000000000000
      0.6840090000D+00  0.1000000000D+01  0.1000000000D+01
 SP   1 1.00       0.000000000000
      0.2008780000D+00  0.1000000000D+01  0.1000000000D+01
 D   1 1.00       0.000000000000
      0.9130000000D+00  0.1000000000D+01
 ****
      4 0
 S   3 1.00       0.000000000000
      0.3386500000D+02  0.2549381454D-01
      0.5094790000D+01  0.1903731086D+00
      0.1158790000D+01  0.8521614860D+00
 S   1 1.00       0.000000000000
      0.3258400000D+00  0.1000000000D+01
 S   1 1.00       0.000000000000
      0.1027410000D+00  0.1000000000D+01
 P   1 1.00       0.000000000000
      0.7500000000D+00  0.1000000000D+01
 ****
      5 0
 S   3 1.00       0.000000000000
      0.3386500000D+02  0.2549381454D-01
      0.5094790000D+01  0.1903731086D+00
      0.1158790000D+01  0.8521614860D+00
 S   1 1.00       0.000000000000
      0.3258400000D+00  0.1000000000D+01
 S   1 1.00       0.000000000000
      0.1027410000D+00  0.1000000000D+01
 P   1 1.00       0.000000000000
      0.7500000000D+00  0.1000000000D+01
 ****

 There are    66 symmetry adapted basis functions of A   symmetry.
 Integral buffers will be    131072 words long.
 Raffenetti 2 integral format.
 Two-electron integral symmetry is turned on.
    66 basis functions,   112 primitive gaussians,    69 cartesian basis functions
    12 alpha electrons       11 beta electrons
       nuclear repulsion energy        59.5267453734 Hartrees.
 IExCor= 4235 DFT=T Ex+Corr=M06 ExCW=0 ScaHFX=  0.270000
 ScaDFX=  1.000000  1.000000  1.000000  1.000000 ScalE2=  1.000000  1.000000
 IRadAn=      0 IRanWt=     -1 IRanGd=            0 ICorTp=0
 NAtoms=    5 NActive=    5 NUniq=    5 SFac= 7.50D-01 NAtFMM=   80 NAOKFM=F Big=F
 Leave Link  301 at Fri Apr 25 16:43:11 2014, MaxMem=   65536000 cpu:       0.3
 (Enter /apps/gaussian/g09/l302.exe)
 NPDir=0 NMtPBC=     1 NCelOv=     1 NCel=       1 NClECP=     1 NCelD=      1
         NCelK=      1 NCelE2=     1 NClLst=     1 CellRange=     0.0.
 One-electron integrals computed using PRISM.
 NBasis=    66 RedAO= T  NBF=    66
 NBsUse=    66 1.00D-06 NBFU=    66
 Precomputing XC quadrature grid using
 IXCGrd= 2 IRadAn=           0 IRanWt=          -1 IRanGd=           0 AccXCQ= 1.00D-10.
 NRdTot=     311 NPtTot=       39306 NUsed=       41561 NTot=       41593
 NSgBfM=    69    69    69    69    69 NAtAll=     5     5.
 Leave Link  302 at Fri Apr 25 16:43:11 2014, MaxMem=   65536000 cpu:       2.4
 (Enter /apps/gaussian/g09/l303.exe)
 DipDrv:  MaxL=1.
 Leave Link  303 at Fri Apr 25 16:43:11 2014, MaxMem=   65536000 cpu:       0.2
 (Enter /apps/gaussian/g09/l401.exe)
 Harris functional with IExCor= 1009 diagonalized for initial guess.
 ExpMin= 1.03D-01 ExpMax= 6.29D+03 ExpMxC= 9.49D+02 IAcc=1 IRadAn=         1 AccDes= 0.00D+00
 HarFok:  IExCor= 1009 AccDes= 0.00D+00 IRadAn=         1 IDoV= 1
 ScaDFX=  1.000000  1.000000  1.000000  1.000000
 FoFCou: FMM=F IPFlag=           0 FMFlag=      100000 FMFlg1=           0
         NFxFlg=           0 DoJE=T BraDBF=F KetDBF=T FulRan=T
         Omega=  0.000000  0.000000  1.000000  0.000000  0.000000 ICntrl=     500 IOpCl=  0
         NMat0=    1 NMatS0=    1 NMatT0=    0 NMatD0=    1 NMtDS0=    0 NMtDT0=    0
         I1Cent=           4 NGrid=           0.
 Petite list used in FoFCou.
 Harris En= -165.155714773838    
 Initial guess orbital symmetries:
 Alpha Orbitals:
       Occupied  (A) (A) (A) (A) (A) (A) (A) (A) (A) (A) (A) (A)
       Virtual   (A) (A) (A) (A) (A) (A) (A) (A) (A) (A) (A) (A)
                 (A) (A) (A) (A) (A) (A) (A) (A) (A) (A) (A) (A)
                 (A) (A) (A) (A) (A) (A) (A) (A) (A) (A) (A) (A)
                 (A) (A) (A) (A) (A) (A) (A) (A) (A) (A) (A) (A)
                 (A) (A) (A) (A) (A) (A)
 Beta  Orbitals:
       Occupied  (A) (A) (A) (A) (A) (A) (A) (A) (A) (A) (A)
       Virtual   (A) (A) (A) (A) (A) (A) (A) (A) (A) (A) (A) (A)
                 (A) (A) (A) (A) (A) (A) (A) (A) (A) (A) (A) (A)
                 (A) (A) (A) (A) (A) (A) (A) (A) (A) (A) (A) (A)
                 (A) (A) (A) (A) (A) (A) (A) (A) (A) (A) (A) (A)
                 (A) (A) (A) (A) (A) (A) (A)
 The electronic state of the initial guess is 2-A.
 Initial guess <Sx>= 0.0000 <Sy>= 0.0000 <Sz>= 0.5000 <S**2>= 0.7500 S= 0.5000
 Leave Link  401 at Fri Apr 25 16:43:11 2014, MaxMem=   65536000 cpu:       1.7
 (Enter /apps/gaussian/g09/l502.exe)
 UHF open shell SCF:
 Requested convergence on RMS density matrix=1.00D-08 within 128 cycles.
 Requested convergence on MAX density matrix=1.00D-06.
 Requested convergence on             energy=1.00D-06.
 No special actions if energy rises.
 Using DIIS extrapolation, IDIIS=  1040.
 Integral symmetry usage will be decided dynamically.
        41503 words used for storage of precomputed grid.
 Keep R1 and R2 ints in memory in canonical form, NReq=6799076.
 IEnd=       75273 IEndB=       75273 NGot=    65536000 MDV=    59647530
 LenX=    59647530 LenY=    59642328
 Symmetry not used in FoFDir.
 MinBra= 0 MaxBra= 2 Meth= 1.
 IRaf=       0 NMat=   1 IRICut=       1 DoRegI=T DoRafI=F ISym2E= 0 JSym2E=0.
 Integral accuracy reduced to 1.0D-05 until final iterations.

 Cycle   1  Pass 0  IDiag  1:
 E= -165.162222484820    
 DIIS: error= 2.67D-02 at cycle   1 NSaved=   1.
 NSaved= 1 IEnMin= 1 EnMin= -165.162222484820     IErMin= 1 ErrMin= 2.67D-02
 ErrMax= 2.67D-02 EMaxC= 1.00D-01 BMatC= 1.56D-01 BMatP= 1.56D-01
 IDIUse=3 WtCom= 7.33D-01 WtEn= 2.67D-01
 Coeff-Com:  0.100D+01
 Coeff-En:   0.100D+01
 Coeff:      0.100D+01
 Gap=     0.118 Goal=   None    Shift=    0.000
 Gap=     0.221 Goal=   None    Shift=    0.000
 GapD=    0.118 DampG=1.000 DampE=0.500 DampFc=0.5000 IDamp=-1.
 Damping current iteration by 5.00D-01
 RMSDP=4.77D-03 MaxDP=7.19D-02              OVMax= 2.01D-01

 Cycle   2  Pass 0  IDiag  1:
 E= -165.161982885137     Delta-E=        0.000239599683 Rises=F Damp=T
 DIIS: error= 1.98D-02 at cycle   2 NSaved=   2.
 NSaved= 2 IEnMin= 1 EnMin= -165.162222484820     IErMin= 2 ErrMin= 1.98D-02
 ErrMax= 1.98D-02 EMaxC= 1.00D-01 BMatC= 7.24D-02 BMatP= 1.56D-01
 IDIUse=3 WtCom= 8.02D-01 WtEn= 1.98D-01
 Coeff-Com:  0.364D+00 0.636D+00
 Coeff-En:   0.503D+00 0.497D+00
 Coeff:      0.391D+00 0.609D+00
 Gap=     0.135 Goal=   None    Shift=    0.000
 Gap=     0.223 Goal=   None    Shift=    0.000
 RMSDP=2.03D-03 MaxDP=2.74D-02 DE= 2.40D-04 OVMax= 1.57D-01

 Cycle   3  Pass 0  IDiag  1:
 E= -165.180622031113     Delta-E=       -0.018639145976 Rises=F Damp=F
 DIIS: error= 2.62D-02 at cycle   3 NSaved=   3.
 NSaved= 3 IEnMin= 3 EnMin= -165.180622031113     IErMin= 2 ErrMin= 1.98D-02
 ErrMax= 2.62D-02 EMaxC= 1.00D-01 BMatC= 7.43D-02 BMatP= 7.24D-02
 IDIUse=3 WtCom= 7.38D-01 WtEn= 2.62D-01
 Coeff-Com:  0.150D+00 0.452D+00 0.398D+00
 Coeff-En:   0.000D+00 0.251D+00 0.749D+00
 Coeff:      0.110D+00 0.400D+00 0.490D+00
 Gap=     0.128 Goal=   None    Shift=    0.000
 Gap=     0.242 Goal=   None    Shift=    0.000
 RMSDP=1.90D-03 MaxDP=2.24D-02 DE=-1.86D-02 OVMax= 9.99D-02

 Cycle   4  Pass 0  IDiag  1:
 E= -165.186871089734     Delta-E=       -0.006249058621 Rises=F Damp=F
 DIIS: error= 2.12D-02 at cycle   4 NSaved=   4.
 NSaved= 4 IEnMin= 4 EnMin= -165.186871089734     IErMin= 2 ErrMin= 1.98D-02
 ErrMax= 2.12D-02 EMaxC= 1.00D-01 BMatC= 4.30D-02 BMatP= 7.24D-02
 IDIUse=3 WtCom= 7.88D-01 WtEn= 2.12D-01
 Coeff-Com:  0.419D-01 0.722D-01 0.409D+00 0.477D+00
 Coeff-En:   0.000D+00 0.000D+00 0.417D+00 0.583D+00
 Coeff:      0.330D-01 0.569D-01 0.411D+00 0.499D+00
 Gap=     0.131 Goal=   None    Shift=    0.000
 Gap=     0.235 Goal=   None    Shift=    0.000
 RMSDP=1.16D-03 MaxDP=1.43D-02 DE=-6.25D-03 OVMax= 5.86D-02

 Cycle   5  Pass 0  IDiag  1:
 E= -165.196745568189     Delta-E=       -0.009874478455 Rises=F Damp=F
 DIIS: error= 2.96D-03 at cycle   5 NSaved=   5.
 NSaved= 5 IEnMin= 5 EnMin= -165.196745568189     IErMin= 5 ErrMin= 2.96D-03
 ErrMax= 2.96D-03 EMaxC= 1.00D-01 BMatC= 6.93D-04 BMatP= 4.30D-02
 IDIUse=3 WtCom= 9.70D-01 WtEn= 2.96D-02
 Coeff-Com:  0.588D-02-0.132D-01 0.133D+00 0.231D+00 0.644D+00
 Coeff-En:   0.000D+00 0.000D+00 0.000D+00 0.000D+00 0.100D+01
 Coeff:      0.571D-02-0.128D-01 0.129D+00 0.224D+00 0.655D+00
 Gap=     0.131 Goal=   None    Shift=    0.000
 Gap=     0.237 Goal=   None    Shift=    0.000
 RMSDP=2.22D-04 MaxDP=4.00D-03 DE=-9.87D-03 OVMax= 1.21D-02

 Cycle   6  Pass 0  IDiag  1:
 E= -165.197072948594     Delta-E=       -0.000327380404 Rises=F Damp=F
 DIIS: error= 1.39D-03 at cycle   6 NSaved=   6.
 NSaved= 6 IEnMin= 6 EnMin= -165.197072948594     IErMin= 6 ErrMin= 1.39D-03
 ErrMax= 1.39D-03 EMaxC= 1.00D-01 BMatC= 9.37D-05 BMatP= 6.93D-04
 IDIUse=3 WtCom= 9.86D-01 WtEn= 1.39D-02
 Coeff-Com: -0.496D-02-0.184D-01-0.497D-01-0.558D-01 0.462D-01 0.108D+01
 Coeff-En:   0.000D+00 0.000D+00 0.000D+00 0.000D+00 0.000D+00 0.100D+01
 Coeff:     -0.489D-02-0.181D-01-0.490D-01-0.550D-01 0.456D-01 0.108D+01
 Gap=     0.132 Goal=   None    Shift=    0.000
 Gap=     0.237 Goal=   None    Shift=    0.000
 RMSDP=2.43D-04 MaxDP=3.77D-03 DE=-3.27D-04 OVMax= 1.49D-02

 Cycle   7  Pass 0  IDiag  1:
 E= -165.197295859578     Delta-E=       -0.000222910984 Rises=F Damp=F
 DIIS: error= 9.29D-04 at cycle   7 NSaved=   7.
 NSaved= 7 IEnMin= 7 EnMin= -165.197295859578     IErMin= 7 ErrMin= 9.29D-04
 ErrMax= 9.29D-04 EMaxC= 1.00D-01 BMatC= 5.25D-05 BMatP= 9.37D-05
 IDIUse=3 WtCom= 9.91D-01 WtEn= 9.29D-03
 Coeff-Com:  0.353D-02 0.495D-02-0.219D-01-0.519D-01-0.290D+00-0.329D+00
 Coeff-Com:  0.168D+01
 Coeff-En:   0.000D+00 0.000D+00 0.000D+00 0.000D+00 0.000D+00 0.000D+00
 Coeff-En:   0.100D+01
 Coeff:      0.350D-02 0.490D-02-0.217D-01-0.515D-01-0.287D+00-0.326D+00
 Coeff:      0.168D+01
 Gap=     0.133 Goal=   None    Shift=    0.000
 Gap=     0.237 Goal=   None    Shift=    0.000
 RMSDP=3.23D-04 MaxDP=5.38D-03 DE=-2.23D-04 OVMax= 2.12D-02

 Cycle   8  Pass 0  IDiag  1:
 E= -165.197531657198     Delta-E=       -0.000235797621 Rises=F Damp=F
 DIIS: error= 7.13D-04 at cycle   8 NSaved=   8.
 NSaved= 8 IEnMin= 8 EnMin= -165.197531657198     IErMin= 8 ErrMin= 7.13D-04
 ErrMax= 7.13D-04 EMaxC= 1.00D-01 BMatC= 2.47D-05 BMatP= 5.25D-05
 IDIUse=3 WtCom= 9.93D-01 WtEn= 7.13D-03
 Coeff-Com:  0.168D-02 0.357D-02 0.278D-01 0.402D-01 0.671D-01-0.342D+00
 Coeff-Com: -0.671D+00 0.187D+01
 Coeff-En:   0.000D+00 0.000D+00 0.000D+00 0.000D+00 0.000D+00 0.000D+00
 Coeff-En:   0.000D+00 0.100D+01
 Coeff:      0.167D-02 0.355D-02 0.276D-01 0.400D-01 0.667D-01-0.340D+00
 Coeff:     -0.666D+00 0.187D+01
 Gap=     0.133 Goal=   None    Shift=    0.000
 Gap=     0.237 Goal=   None    Shift=    0.000
 RMSDP=3.33D-04 MaxDP=6.11D-03 DE=-2.36D-04 OVMax= 2.35D-02

 Cycle   9  Pass 0  IDiag  1:
 E= -165.197692579032     Delta-E=       -0.000160921833 Rises=F Damp=F
 DIIS: error= 5.11D-04 at cycle   9 NSaved=   9.
 NSaved= 9 IEnMin= 9 EnMin= -165.197692579032     IErMin= 9 ErrMin= 5.11D-04
 ErrMax= 5.11D-04 EMaxC= 1.00D-01 BMatC= 9.72D-06 BMatP= 2.47D-05
 IDIUse=3 WtCom= 9.95D-01 WtEn= 5.11D-03
 Coeff-Com: -0.313D-02-0.975D-03-0.275D-02 0.694D-02 0.101D+00 0.423D+00
 Coeff-Com: -0.639D+00-0.771D+00 0.189D+01
 Coeff-En:   0.000D+00 0.000D+00 0.000D+00 0.000D+00 0.000D+00 0.000D+00
 Coeff-En:   0.000D+00 0.000D+00 0.100D+01
 Coeff:     -0.311D-02-0.970D-03-0.274D-02 0.690D-02 0.100D+00 0.421D+00
 Coeff:     -0.635D+00-0.767D+00 0.188D+01
 Gap=     0.134 Goal=   None    Shift=    0.000
 Gap=     0.237 Goal=   None    Shift=    0.000
 RMSDP=2.33D-04 MaxDP=4.11D-03 DE=-1.61D-04 OVMax= 1.61D-02

 Cycle  10  Pass 0  IDiag  1:
 E= -165.197753649340     Delta-E=       -0.000061070308 Rises=F Damp=F
 DIIS: error= 2.09D-04 at cycle  10 NSaved=  10.
 NSaved=10 IEnMin=10 EnMin= -165.197753649340     IErMin=10 ErrMin= 2.09D-04
 ErrMax= 2.09D-04 EMaxC= 1.00D-01 BMatC= 2.33D-06 BMatP= 9.72D-06
 IDIUse=3 WtCom= 9.98D-01 WtEn= 2.09D-03
 Coeff-Com: -0.399D-03-0.114D-02-0.681D-02-0.154D-01-0.209D-01 0.103D+00
 Coeff-Com:  0.220D+00-0.634D+00 0.411D-01 0.131D+01
 Coeff-En:   0.000D+00 0.000D+00 0.000D+00 0.000D+00 0.000D+00 0.000D+00
 Coeff-En:   0.000D+00 0.000D+00 0.000D+00 0.100D+01
 Coeff:     -0.398D-03-0.114D-02-0.680D-02-0.154D-01-0.209D-01 0.103D+00
 Coeff:      0.219D+00-0.632D+00 0.410D-01 0.131D+01
 Gap=     0.134 Goal=   None    Shift=    0.000
 Gap=     0.237 Goal=   None    Shift=    0.000
 RMSDP=1.10D-04 MaxDP=1.99D-03 DE=-6.11D-05 OVMax= 7.88D-03

 Cycle  11  Pass 0  IDiag  1:
 E= -165.197763170300     Delta-E=       -0.000009520960 Rises=F Damp=F
 DIIS: error= 4.78D-05 at cycle  11 NSaved=  11.
 NSaved=11 IEnMin=11 EnMin= -165.197763170300     IErMin=11 ErrMin= 4.78D-05
 ErrMax= 4.78D-05 EMaxC= 1.00D-01 BMatC= 2.02D-07 BMatP= 2.33D-06
 IDIUse=1 WtCom= 1.00D+00 WtEn= 0.00D+00
 Coeff-Com:  0.311D-03-0.158D-03 0.858D-03-0.766D-03-0.674D-02-0.552D-01
 Coeff-Com:  0.585D-01 0.114D+00-0.205D+00-0.349D-01 0.113D+01
 Coeff:      0.311D-03-0.158D-03 0.858D-03-0.766D-03-0.674D-02-0.552D-01
 Coeff:      0.585D-01 0.114D+00-0.205D+00-0.349D-01 0.113D+01
 Gap=     0.135 Goal=   None    Shift=    0.000
 Gap=     0.237 Goal=   None    Shift=    0.000
 RMSDP=1.67D-05 MaxDP=2.81D-04 DE=-9.52D-06 OVMax= 1.10D-03

 Cycle  12  Pass 0  IDiag  1:
 E= -165.197763522959     Delta-E=       -0.000000352659 Rises=F Damp=F
 DIIS: error= 2.30D-05 at cycle  12 NSaved=  12.
 NSaved=12 IEnMin=12 EnMin= -165.197763522959     IErMin=12 ErrMin= 2.30D-05
 ErrMax= 2.30D-05 EMaxC= 1.00D-01 BMatC= 2.62D-08 BMatP= 2.02D-07
 IDIUse=1 WtCom= 1.00D+00 WtEn= 0.00D+00
 Coeff-Com: -0.795D-05 0.148D-03 0.572D-03 0.183D-02 0.211D-02-0.763D-02
 Coeff-Com: -0.258D-01 0.663D-01-0.101D-01-0.119D+00-0.834D-01 0.118D+01
 Coeff:     -0.795D-05 0.148D-03 0.572D-03 0.183D-02 0.211D-02-0.763D-02
 Coeff:     -0.258D-01 0.663D-01-0.101D-01-0.119D+00-0.834D-01 0.118D+01
 Gap=     0.135 Goal=   None    Shift=    0.000
 Gap=     0.237 Goal=   None    Shift=    0.000
 RMSDP=7.50D-06 MaxDP=9.40D-05 DE=-3.53D-07 OVMax= 5.69D-04

 Initial convergence to 1.0D-05 achieved.  Increase integral accuracy.
 Cycle  13  Pass 1  IDiag  1:
 E= -165.197683737060     Delta-E=        0.000079785899 Rises=F Damp=F
 DIIS: error= 1.84D-04 at cycle   1 NSaved=   1.
 NSaved= 1 IEnMin= 1 EnMin= -165.197683737060     IErMin= 1 ErrMin= 1.84D-04
 ErrMax= 1.84D-04 EMaxC= 1.00D-01 BMatC= 1.10D-05 BMatP= 1.10D-05
 IDIUse=3 WtCom= 9.98D-01 WtEn= 1.84D-03
 Coeff-Com:  0.100D+01
 Coeff-En:   0.100D+01
 Coeff:      0.100D+01
 Gap=     0.135 Goal=   None    Shift=    0.000
 Gap=     0.237 Goal=   None    Shift=    0.000
 RMSDP=7.50D-06 MaxDP=9.40D-05 DE= 7.98D-05 OVMax= 4.76D-04

 Cycle  14  Pass 1  IDiag  1:
 E= -165.197686115294     Delta-E=       -0.000002378234 Rises=F Damp=F
 DIIS: error= 3.24D-05 at cycle   2 NSaved=   2.
 NSaved= 2 IEnMin= 2 EnMin= -165.197686115294     IErMin= 2 ErrMin= 3.24D-05
 ErrMax= 3.24D-05 EMaxC= 1.00D-01 BMatC= 1.90D-07 BMatP= 1.10D-05
 IDIUse=1 WtCom= 1.00D+00 WtEn= 0.00D+00
 Coeff-Com: -0.713D-03 0.100D+01
 Coeff:     -0.713D-03 0.100D+01
 Gap=     0.135 Goal=   None    Shift=    0.000
 Gap=     0.237 Goal=   None    Shift=    0.000
 RMSDP=7.07D-06 MaxDP=8.73D-05 DE=-2.38D-06 OVMax= 2.52D-04

 Cycle  15  Pass 1  IDiag  1:
 E= -165.197685985704     Delta-E=        0.000000129590 Rises=F Damp=F
 DIIS: error= 8.15D-05 at cycle   3 NSaved=   3.
 NSaved= 3 IEnMin= 2 EnMin= -165.197686115294     IErMin= 2 ErrMin= 3.24D-05
 ErrMax= 8.15D-05 EMaxC= 1.00D-01 BMatC= 9.39D-07 BMatP= 1.90D-07
 IDIUse=1 WtCom= 1.00D+00 WtEn= 0.00D+00
 Coeff-Com: -0.175D-01 0.723D+00 0.294D+00
 Coeff:     -0.175D-01 0.723D+00 0.294D+00
 Gap=     0.135 Goal=   None    Shift=    0.000
 Gap=     0.237 Goal=   None    Shift=    0.000
 RMSDP=4.39D-06 MaxDP=6.44D-05 DE= 1.30D-07 OVMax= 2.13D-04

 Cycle  16  Pass 1  IDiag  1:
 E= -165.197686162112     Delta-E=       -0.000000176408 Rises=F Damp=F
 DIIS: error= 2.72D-05 at cycle   4 NSaved=   4.
 NSaved= 4 IEnMin= 4 EnMin= -165.197686162112     IErMin= 4 ErrMin= 2.72D-05
 ErrMax= 2.72D-05 EMaxC= 1.00D-01 BMatC= 7.38D-08 BMatP= 1.90D-07
 IDIUse=1 WtCom= 1.00D+00 WtEn= 0.00D+00
 Coeff-Com: -0.114D-01 0.325D+00 0.213D+00 0.473D+00
 Coeff:     -0.114D-01 0.325D+00 0.213D+00 0.473D+00
 Gap=     0.135 Goal=   None    Shift=    0.000
 Gap=     0.237 Goal=   None    Shift=    0.000
 RMSDP=1.98D-06 MaxDP=2.30D-05 DE=-1.76D-07 OVMax= 8.90D-05

 Cycle  17  Pass 1  IDiag  1:
 E= -165.197686180220     Delta-E=       -0.000000018108 Rises=F Damp=F
 DIIS: error= 8.76D-06 at cycle   5 NSaved=   5.
 NSaved= 5 IEnMin= 5 EnMin= -165.197686180220     IErMin= 5 ErrMin= 8.76D-06
 ErrMax= 8.76D-06 EMaxC= 1.00D-01 BMatC= 1.33D-08 BMatP= 7.38D-08
 IDIUse=1 WtCom= 1.00D+00 WtEn= 0.00D+00
 Coeff-Com: -0.344D-02 0.311D-01 0.603D-01 0.327D+00 0.585D+00
 Coeff:     -0.344D-02 0.311D-01 0.603D-01 0.327D+00 0.585D+00
 Gap=     0.135 Goal=   None    Shift=    0.000
 Gap=     0.237 Goal=   None    Shift=    0.000
 RMSDP=1.47D-06 MaxDP=1.66D-05 DE=-1.81D-08 OVMax= 1.14D-04

 Cycle  18  Pass 1  IDiag  1:
 E= -165.197686187441     Delta-E=       -0.000000007221 Rises=F Damp=F
 DIIS: error= 6.09D-06 at cycle   6 NSaved=   6.
 NSaved= 6 IEnMin= 6 EnMin= -165.197686187441     IErMin= 6 ErrMin= 6.09D-06
 ErrMax= 6.09D-06 EMaxC= 1.00D-01 BMatC= 1.46D-09 BMatP= 1.33D-08
 IDIUse=1 WtCom= 1.00D+00 WtEn= 0.00D+00
 Coeff-Com:  0.185D-02-0.586D-01-0.417D-01-0.768D-01 0.641D-01 0.111D+01
 Coeff:      0.185D-02-0.586D-01-0.417D-01-0.768D-01 0.641D-01 0.111D+01
 Gap=     0.135 Goal=   None    Shift=    0.000
 Gap=     0.237 Goal=   None    Shift=    0.000
 RMSDP=1.81D-06 MaxDP=2.27D-05 DE=-7.22D-09 OVMax= 1.50D-04

 Cycle  19  Pass 1  IDiag  1:
 E= -165.197686192233     Delta-E=       -0.000000004792 Rises=F Damp=F
 DIIS: error= 4.18D-06 at cycle   7 NSaved=   7.
 NSaved= 7 IEnMin= 7 EnMin= -165.197686192233     IErMin= 7 ErrMin= 4.18D-06
 ErrMax= 4.18D-06 EMaxC= 1.00D-01 BMatC= 5.11D-10 BMatP= 1.46D-09
 IDIUse=1 WtCom= 1.00D+00 WtEn= 0.00D+00
 Coeff-Com:  0.130D-02-0.382D-02-0.190D-01-0.135D+00-0.231D+00-0.524D+00
 Coeff-Com:  0.191D+01
 Coeff:      0.130D-02-0.382D-02-0.190D-01-0.135D+00-0.231D+00-0.524D+00
 Coeff:      0.191D+01
 Gap=     0.135 Goal=   None    Shift=    0.000
 Gap=     0.237 Goal=   None    Shift=    0.000
 RMSDP=2.72D-06 MaxDP=3.40D-05 DE=-4.79D-09 OVMax= 2.27D-04

 Cycle  20  Pass 1  IDiag  1:
 E= -165.197686195947     Delta-E=       -0.000000003715 Rises=F Damp=F
 DIIS: error= 1.25D-06 at cycle   8 NSaved=   8.
 NSaved= 8 IEnMin= 8 EnMin= -165.197686195947     IErMin= 8 ErrMin= 1.25D-06
 ErrMax= 1.25D-06 EMaxC= 1.00D-01 BMatC= 1.05D-10 BMatP= 5.11D-10
 IDIUse=1 WtCom= 1.00D+00 WtEn= 0.00D+00
 Coeff-Com:  0.631D-04 0.932D-02 0.365D-02-0.255D-01-0.735D-01-0.442D+00
 Coeff-Com:  0.639D+00 0.890D+00
 Coeff:      0.631D-04 0.932D-02 0.365D-02-0.255D-01-0.735D-01-0.442D+00
 Coeff:      0.639D+00 0.890D+00
 Gap=     0.135 Goal=   None    Shift=    0.000
 Gap=     0.237 Goal=   None    Shift=    0.000
 RMSDP=8.55D-07 MaxDP=1.07D-05 DE=-3.71D-09 OVMax= 7.14D-05

 Cycle  21  Pass 1  IDiag  1:
 E= -165.197686196314     Delta-E=       -0.000000000367 Rises=F Damp=F
 DIIS: error= 4.22D-07 at cycle   9 NSaved=   9.
 NSaved= 9 IEnMin= 9 EnMin= -165.197686196314     IErMin= 9 ErrMin= 4.22D-07
 ErrMax= 4.22D-07 EMaxC= 1.00D-01 BMatC= 1.69D-11 BMatP= 1.05D-10
 IDIUse=1 WtCom= 1.00D+00 WtEn= 0.00D+00
 Coeff-Com: -0.298D-03 0.301D-02 0.533D-02 0.230D-01 0.462D-01 0.202D-01
 Coeff-Com: -0.291D+00 0.105D+00 0.109D+01
 Coeff:     -0.298D-03 0.301D-02 0.533D-02 0.230D-01 0.462D-01 0.202D-01
 Coeff:     -0.291D+00 0.105D+00 0.109D+01
 Gap=     0.135 Goal=   None    Shift=    0.000
 Gap=     0.237 Goal=   None    Shift=    0.000
 RMSDP=2.95D-07 MaxDP=3.63D-06 DE=-3.67D-10 OVMax= 2.44D-05

 Cycle  22  Pass 1  IDiag  1:
 E= -165.197686196357     Delta-E=       -0.000000000043 Rises=F Damp=F
 DIIS: error= 1.37D-07 at cycle  10 NSaved=  10.
 NSaved=10 IEnMin=10 EnMin= -165.197686196357     IErMin=10 ErrMin= 1.37D-07
 ErrMax= 1.37D-07 EMaxC= 1.00D-01 BMatC= 3.18D-12 BMatP= 1.69D-11
 IDIUse=1 WtCom= 1.00D+00 WtEn= 0.00D+00
 Coeff-Com: -0.303D-05-0.177D-02-0.173D-02 0.492D-02 0.129D-01 0.778D-01
 Coeff-Com: -0.942D-01-0.163D+00 0.221D-02 0.116D+01
 Coeff:     -0.303D-05-0.177D-02-0.173D-02 0.492D-02 0.129D-01 0.778D-01
 Coeff:     -0.942D-01-0.163D+00 0.221D-02 0.116D+01
 Gap=     0.135 Goal=   None    Shift=    0.000
 Gap=     0.237 Goal=   None    Shift=    0.000
 RMSDP=4.32D-08 MaxDP=5.14D-07 DE=-4.33D-11 OVMax= 2.81D-06

 Cycle  23  Pass 1  IDiag  1:
 E= -165.197686196363     Delta-E=       -0.000000000006 Rises=F Damp=F
 DIIS: error= 6.97D-08 at cycle  11 NSaved=  11.
 NSaved=11 IEnMin=11 EnMin= -165.197686196363     IErMin=11 ErrMin= 6.97D-08
 ErrMax= 6.97D-08 EMaxC= 1.00D-01 BMatC= 5.98D-13 BMatP= 3.18D-12
 IDIUse=1 WtCom= 1.00D+00 WtEn= 0.00D+00
 Coeff-Com:  0.648D-04-0.765D-03-0.162D-02-0.379D-02-0.903D-02 0.328D-02
 Coeff-Com:  0.470D-01-0.417D-01-0.224D+00 0.392D-01 0.119D+01
 Coeff:      0.648D-04-0.765D-03-0.162D-02-0.379D-02-0.903D-02 0.328D-02
 Coeff:      0.470D-01-0.417D-01-0.224D+00 0.392D-01 0.119D+01
 Gap=     0.135 Goal=   None    Shift=    0.000
 Gap=     0.237 Goal=   None    Shift=    0.000
 RMSDP=3.73D-08 MaxDP=4.09D-07 DE=-5.63D-12 OVMax= 2.67D-06

 Cycle  24  Pass 1  IDiag  1:
 E= -165.197686196364     Delta-E=       -0.000000000001 Rises=F Damp=F
 DIIS: error= 1.42D-08 at cycle  12 NSaved=  12.
 NSaved=12 IEnMin=12 EnMin= -165.197686196364     IErMin=12 ErrMin= 1.42D-08
 ErrMax= 1.42D-08 EMaxC= 1.00D-01 BMatC= 2.78D-14 BMatP= 5.98D-13
 IDIUse=1 WtCom= 1.00D+00 WtEn= 0.00D+00
 Coeff-Com:  0.224D-05 0.997D-04 0.101D-03-0.379D-03-0.958D-03-0.471D-02
 Coeff-Com:  0.404D-02 0.155D-01 0.122D-01-0.128D+00 0.208D-01 0.108D+01
 Coeff:      0.224D-05 0.997D-04 0.101D-03-0.379D-03-0.958D-03-0.471D-02
 Coeff:      0.404D-02 0.155D-01 0.122D-01-0.128D+00 0.208D-01 0.108D+01
 Gap=     0.135 Goal=   None    Shift=    0.000
 Gap=     0.237 Goal=   None    Shift=    0.000
 RMSDP=4.46D-09 MaxDP=4.73D-08 DE=-5.68D-13 OVMax= 2.79D-07

 SCF Done:  E(UM06) =  -165.197686196     A.U. after   24 cycles
             Convg  =    0.4460D-08             -V/T =  2.0055
 <Sx>= 0.0000 <Sy>= 0.0000 <Sz>= 0.5000 <S**2>= 0.8048 S= 0.5270
 <L.S>=  0.00000000000    
 KE= 1.642895777289D+02 PE=-5.058968771688D+02 EE= 1.168828678702D+02
 Annihilation of the first spin contaminant:
 S**2 before annihilation     0.8048,   after     0.7506
 Leave Link  502 at Fri Apr 25 16:43:13 2014, MaxMem=   65536000 cpu:      20.7
 (Enter /apps/gaussian/g09/l601.exe)
 Copying SCF densities to generalized density rwf, IOpCl= 1 IROHF=0.

 **********************************************************************

            Population analysis using the SCF density.

 **********************************************************************

 Orbital symmetries:
 Alpha Orbitals:
       Occupied  (A) (A) (A) (A) (A) (A) (A) (A) (A) (A) (A) (A)
       Virtual   (A) (A) (A) (A) (A) (A) (A) (A) (A) (A) (A) (A)
                 (A) (A) (A) (A) (A) (A) (A) (A) (A) (A) (A) (A)
                 (A) (A) (A) (A) (A) (A) (A) (A) (A) (A) (A) (A)
                 (A) (A) (A) (A) (A) (A) (A) (A) (A) (A) (A) (A)
                 (A) (A) (A) (A) (A) (A)
 Beta  Orbitals:
       Occupied  (A) (A) (A) (A) (A) (A) (A) (A) (A) (A) (A)
       Virtual   (A) (A) (A) (A) (A) (A) (A) (A) (A) (A) (A) (A)
                 (A) (A) (A) (A) (A) (A) (A) (A) (A) (A) (A) (A)
                 (A) (A) (A) (A) (A) (A) (A) (A) (A) (A) (A) (A)
                 (A) (A) (A) (A) (A) (A) (A) (A) (A) (A) (A) (A)
                 (A) (A) (A) (A) (A) (A) (A)
 The electronic state is 2-A.
 Alpha  occ. eigenvalues --  -14.48609 -14.47833 -14.47321  -1.02289  -0.89840
 Alpha  occ. eigenvalues --   -0.67548  -0.57203  -0.47319  -0.42222  -0.37101
 Alpha  occ. eigenvalues --   -0.31340  -0.20563
 Alpha virt. eigenvalues --   -0.07107  -0.00381   0.05725   0.06844   0.29263
 Alpha virt. eigenvalues --    0.34588   0.38375   0.52148   0.53757   0.58893
 Alpha virt. eigenvalues --    0.59842   0.61501   0.65806   0.68676   0.70596
 Alpha virt. eigenvalues --    0.73397   0.82098   0.95692   1.05686   1.20743
 Alpha virt. eigenvalues --    1.35853   1.52688   1.61695   1.65286   1.70339
 Alpha virt. eigenvalues --    1.77641   1.82524   1.87163   1.88517   2.02887
 Alpha virt. eigenvalues --    2.04065   2.11044   2.22026   2.27294   2.32208
 Alpha virt. eigenvalues --    2.44927   2.50553   2.68849   2.77167   2.82021
 Alpha virt. eigenvalues --    2.97526   3.08042   3.53579   3.55857   3.66308
 Alpha virt. eigenvalues --    3.76240   3.78829   3.91744   4.38938   4.63230
 Alpha virt. eigenvalues --    4.97634  35.05189  35.20303  35.40182
  Beta  occ. eigenvalues --  -14.48363 -14.47883 -14.45410  -1.01860  -0.87230
  Beta  occ. eigenvalues --   -0.65647  -0.56943  -0.44652  -0.41768  -0.32121
  Beta  occ. eigenvalues --   -0.29198
  Beta virt. eigenvalues --   -0.05488  -0.04972   0.00376   0.06482   0.07179
  Beta virt. eigenvalues --    0.30557   0.34713   0.38721   0.52511   0.53727
  Beta virt. eigenvalues --    0.61060   0.61461   0.62788   0.66124   0.70333
  Beta virt. eigenvalues --    0.70804   0.74608   0.82342   0.95999   1.06169
  Beta virt. eigenvalues --    1.20817   1.35930   1.52625   1.62074   1.65909
  Beta virt. eigenvalues --    1.70695   1.79183   1.83403   1.89845   1.90952
  Beta virt. eigenvalues --    2.07616   2.08050   2.12520   2.22792   2.28536
  Beta virt. eigenvalues --    2.33469   2.46360   2.50707   2.69699   2.77993
  Beta virt. eigenvalues --    2.82227   2.98020   3.08570   3.56904   3.63001
  Beta virt. eigenvalues --    3.68119   3.80752   3.85745   3.91128   4.40727
  Beta virt. eigenvalues --    4.62932   4.98040  35.06546  35.21272  35.40128
     Alpha Molecular Orbital Coefficients:
                           1         2         3         4         5
                           O         O         O         O         O
     Eigenvalues --   -14.48609 -14.47833 -14.47321  -1.02289  -0.89840
   1 1   N  1S          0.55768  -0.00583  -0.00357  -0.07782  -0.04830
   2        2S          0.46539  -0.00482  -0.00288  -0.12173  -0.07575
   3        2PX        -0.00062  -0.00033   0.00048  -0.03073   0.09302
   4        2PY         0.00072   0.00004   0.00007   0.01444   0.00889
   5        2PZ        -0.00024  -0.00004  -0.00002  -0.00502  -0.00239
   6        3S          0.01432  -0.00032  -0.00055   0.34947   0.22031
   7        3PX         0.00018   0.00074  -0.00121  -0.04913   0.14606
   8        3PY         0.00018  -0.00007  -0.00013   0.02616   0.01605
   9        3PZ        -0.00005   0.00009   0.00004  -0.00843  -0.00421
  10        4S         -0.00821   0.00202   0.00318   0.19419   0.14316
  11        4PX         0.00077  -0.00363   0.00535  -0.01687   0.02415
  12        4PY        -0.00071   0.00024   0.00045   0.01020   0.00812
  13        4PZ         0.00026  -0.00034  -0.00006  -0.00155  -0.00138
  14        5D 0       -0.00041   0.00021   0.00031  -0.01202  -0.00407
  15        5D+1        0.00005  -0.00008   0.00001   0.00130  -0.00140
  16        5D-1       -0.00000   0.00001   0.00000  -0.00048  -0.00019
  17        5D+2        0.00068  -0.00034  -0.00051   0.01762   0.00631
  18        5D-2        0.00002   0.00005  -0.00010  -0.00204   0.00651
  19 2   N  1S          0.00355  -0.00059   0.55736  -0.03253  -0.08709
  20        2S          0.00310  -0.00049   0.46581  -0.05130  -0.13754
  21        2PX        -0.00047   0.00003  -0.00138  -0.03002  -0.05877
  22        2PY        -0.00008   0.00001  -0.00008  -0.00397  -0.01059
  23        2PZ         0.00002  -0.00001   0.00004   0.00097   0.00262
  24        3S         -0.00041  -0.00003   0.01428   0.14977   0.40507
  25        3PX         0.00107  -0.00015  -0.00021  -0.05013  -0.09935
  26        3PY         0.00016  -0.00003  -0.00011  -0.00568  -0.01676
  27        3PZ        -0.00005   0.00003   0.00002   0.00127   0.00419
  28        4S          0.00146   0.00161  -0.00961   0.07748   0.25630
  29        4PX        -0.00113  -0.00064   0.00326  -0.01140  -0.03379
  30        4PY         0.00006  -0.00034   0.00067  -0.00238  -0.00524
  31        4PZ        -0.00004   0.00013  -0.00020   0.00069   0.00165
  32        5D 0        0.00039  -0.00001   0.00002  -0.00398  -0.00718
  33        5D+1        0.00010  -0.00005   0.00000  -0.00046  -0.00142
  34        5D-1        0.00002  -0.00002   0.00003   0.00014   0.00017
  35        5D+2       -0.00060  -0.00000   0.00010   0.00752   0.01333
  36        5D-2       -0.00029   0.00009   0.00001   0.00174   0.00480
  37 3   N  1S          0.00582   0.55762   0.00055  -0.08834   0.06213
  38        2S          0.00490   0.46496   0.00046  -0.13748   0.09693
  39        2PX         0.00054   0.00082  -0.00001   0.03187   0.01579
  40        2PY        -0.00008  -0.00017   0.00001  -0.00450   0.00041
  41        2PZ        -0.00001   0.00115  -0.00002   0.02899  -0.02561
  42        3S          0.00003   0.01699  -0.00003   0.38401  -0.27327
  43        3PX        -0.00137  -0.00149   0.00009   0.06155   0.01750
  44        3PY         0.00021   0.00025   0.00000  -0.00842   0.00219
  45        3PZ         0.00021   0.00143   0.00006   0.04373  -0.03916
  46        4S          0.00258  -0.00735   0.00243   0.23589  -0.20648
  47        4PX         0.00191  -0.00217   0.00091   0.00947   0.00039
  48        4PY         0.00008   0.00052  -0.00062  -0.00245  -0.00080
  49        4PZ         0.00025  -0.00028   0.00037   0.02134  -0.01953
  50        5D 0        0.00022  -0.00053  -0.00001  -0.00687   0.00148
  51        5D+1       -0.00029  -0.00060   0.00003   0.00244   0.00176
  52        5D-1        0.00010   0.00021  -0.00003   0.00017  -0.00046
  53        5D+2       -0.00068  -0.00073  -0.00002   0.00802   0.00182
  54        5D-2        0.00025   0.00022  -0.00009  -0.00150   0.00004
  55 4   H  1S         -0.00013  -0.00019  -0.00003   0.05895  -0.05710
  56        2S         -0.00058  -0.00201  -0.00028   0.05096  -0.05490
  57        3S          0.00065   0.00107   0.00006  -0.00893   0.00039
  58        4PX        -0.00013  -0.00099   0.00007   0.00773  -0.00483
  59        4PY        -0.00026  -0.00185  -0.00003   0.01096  -0.01006
  60        4PZ         0.00008   0.00095   0.00001  -0.00454   0.00384
  61 5   H  1S         -0.00014  -0.00024   0.00003   0.06080  -0.05657
  62        2S         -0.00089  -0.00231  -0.00019   0.05428  -0.05130
  63        3S          0.00064   0.00111   0.00026  -0.01039  -0.00072
  64        4PX        -0.00005  -0.00046   0.00001   0.00487  -0.00179
  65        4PY         0.00029   0.00207   0.00005  -0.01271   0.01066
  66        4PZ         0.00016   0.00119  -0.00004  -0.00575   0.00426
                           6         7         8         9        10
                           O         O         O         O         O
     Eigenvalues --    -0.67548  -0.57203  -0.47319  -0.42222  -0.37101
   1 1   N  1S         -0.06480   0.00111   0.03807  -0.00285   0.00602
   2        2S         -0.10247   0.00190   0.06058  -0.00459   0.00975
   3        2PX        -0.09662   0.00171  -0.13298  -0.06169   0.01544
   4        2PY        -0.00133   0.07160   0.02250  -0.00681   0.19277
   5        2PZ        -0.01088   0.00055  -0.04822   0.15506   0.00467
   6        3S          0.30532  -0.00689  -0.18309   0.01402  -0.02947
   7        3PX        -0.14877   0.00137  -0.20652  -0.09605   0.02472
   8        3PY         0.00197   0.10910   0.03079  -0.00985   0.28355
   9        3PZ        -0.01875   0.00109  -0.07302   0.23133   0.00755
  10        4S          0.27026   0.00426  -0.21385  -0.01810  -0.02787
  11        4PX        -0.07923   0.01498  -0.13718  -0.02985   0.02146
  12        4PY        -0.00003   0.07740   0.02093  -0.01071   0.26945
  13        4PZ        -0.00356   0.00112  -0.05261   0.20604   0.00749
  14        5D 0       -0.00323  -0.00164  -0.00167  -0.00392  -0.00534
  15        5D+1        0.00453  -0.00052   0.00587  -0.00692  -0.00023
  16        5D-1       -0.00086  -0.00122  -0.00260   0.00696  -0.00259
  17        5D+2        0.00405  -0.00771   0.00256   0.00241  -0.01106
  18        5D-2       -0.00412  -0.01372  -0.00463  -0.00118   0.01352
  19 2   N  1S          0.06390   0.00582  -0.06399  -0.01534   0.00730
  20        2S          0.10141   0.00920  -0.10180  -0.02436   0.01169
  21        2PX        -0.01135  -0.00835   0.15988   0.06701  -0.06977
  22        2PY         0.00062   0.01648   0.05096   0.01606   0.19917
  23        2PZ        -0.00196   0.00080  -0.03070   0.09303   0.00490
  24        3S         -0.30324  -0.02642   0.29657   0.06916  -0.03367
  25        3PX        -0.01227  -0.01351   0.23474   0.10163  -0.10439
  26        3PY         0.00193   0.02568   0.07461   0.02452   0.29055
  27        3PZ        -0.00331   0.00139  -0.04658   0.14131   0.00855
  28        4S         -0.24907  -0.04236   0.40702   0.10225  -0.06594
  29        4PX        -0.00749   0.00171   0.12698   0.06594  -0.07293
  30        4PY        -0.00256   0.01228   0.04733   0.01857   0.24633
  31        4PZ        -0.00212   0.00032  -0.03021   0.10385   0.00593
  32        5D 0       -0.00109  -0.00088   0.01059   0.00539  -0.00309
  33        5D+1        0.00098  -0.00025   0.00615  -0.01542  -0.00134
  34        5D-1       -0.00010   0.00007   0.00130  -0.00167   0.00061
  35        5D+2        0.00130   0.00229  -0.01630  -0.00719   0.01028
  36        5D-2       -0.00033  -0.00414  -0.00863  -0.00294  -0.02312
  37 3   N  1S          0.03343   0.00094  -0.01560   0.02551   0.00138
  38        2S          0.05225   0.00152  -0.02512   0.04091   0.00214
  39        2PX         0.14910   0.03879   0.10055   0.04139  -0.00750
  40        2PY        -0.02788   0.21852  -0.01404  -0.01051  -0.05767
  41        2PZ        -0.03692   0.00745  -0.05620   0.17525   0.00960
  42        3S         -0.14440  -0.00502   0.08259  -0.12727  -0.00488
  43        3PX         0.22645   0.05901   0.15777   0.05578  -0.00736
  44        3PY        -0.04178   0.31988  -0.02173  -0.01467  -0.07856
  45        3PZ        -0.05397   0.01094  -0.08236   0.26452   0.01404
  46        4S         -0.15538  -0.00028   0.06043  -0.09289  -0.02042
  47        4PX         0.10348   0.03667   0.09481   0.07587  -0.00902
  48        4PY        -0.01779   0.18851  -0.00357  -0.02084  -0.05594
  49        4PZ        -0.03200   0.00709  -0.07493   0.25702   0.01347
  50        5D 0       -0.00651   0.00099  -0.00679   0.01421   0.00023
  51        5D+1        0.01326   0.00420   0.00420   0.01803   0.00069
  52        5D-1       -0.00300   0.02231  -0.00025  -0.00299  -0.00512
  53        5D+2        0.01752   0.00179   0.00858  -0.00087   0.00521
  54        5D-2       -0.00659  -0.00041  -0.00220  -0.00102   0.01570
  55 4   H  1S         -0.08033  -0.14513  -0.03746   0.01544   0.05383
  56        2S         -0.08973  -0.18923  -0.03707  -0.00793   0.09523
  57        3S         -0.01642  -0.04478  -0.02557   0.00865   0.02954
  58        4PX         0.00294  -0.01120   0.00516   0.00340   0.00217
  59        4PY        -0.01339  -0.00699  -0.00482  -0.00011   0.00413
  60        4PZ         0.00262   0.01017  -0.00353   0.01438  -0.00326
  61 5   H  1S         -0.08981   0.13785  -0.03985   0.01950  -0.04880
  62        2S         -0.10318   0.18204  -0.05265  -0.00041  -0.08268
  63        3S         -0.01952   0.04310  -0.02272   0.01511  -0.02786
  64        4PX         0.00572   0.01043   0.00581   0.00388   0.00045
  65        4PY         0.01260  -0.00845   0.00409  -0.00239   0.00157
  66        4PZ         0.00463  -0.01063  -0.00200   0.01388   0.00460
                          11        12        13        14        15
                           O         O         V         V         V
     Eigenvalues --    -0.31340  -0.20563  -0.07107  -0.00381   0.05725
   1 1   N  1S          0.00358  -0.02304  -0.00922   0.03680   0.05827
   2        2S          0.00586  -0.03671  -0.01440   0.05933   0.09341
   3        2PX         0.01198  -0.00817  -0.00916   0.02445   0.01205
   4        2PY         0.00590  -0.20906   0.04420  -0.06677  -0.05046
   5        2PZ         0.08816   0.02472   0.23462   0.04023   0.04811
   6        3S         -0.02144   0.10139   0.03295  -0.17496  -0.26246
   7        3PX         0.01848  -0.01047  -0.01054   0.06550   0.01448
   8        3PY         0.00855  -0.30241   0.06461  -0.09960  -0.07429
   9        3PZ         0.12939   0.03616   0.33965   0.05617   0.06753
  10        4S          0.01196   0.25231   0.17080  -0.44498  -1.08198
  11        4PX        -0.01618  -0.06485  -0.07177  -0.11258   0.18137
  12        4PY         0.01324  -0.35369   0.09236  -0.15489  -0.16341
  13        4PZ         0.14282   0.03670   0.45790   0.10268   0.15140
  14        5D 0       -0.00007   0.01019   0.00276  -0.01293  -0.01091
  15        5D+1        0.02986  -0.00079  -0.01375  -0.00297   0.00207
  16        5D-1        0.00317   0.00213   0.00066   0.00156   0.00198
  17        5D+2        0.00011  -0.00672  -0.00566   0.02888   0.02396
  18        5D-2        0.00004   0.02089  -0.00452   0.00455   0.00774
  19 2   N  1S          0.00019   0.00520   0.00302  -0.01818  -0.02193
  20        2S          0.00032   0.00897   0.00512  -0.03018  -0.03599
  21        2PX         0.00722   0.02002   0.02747  -0.12826  -0.14794
  22        2PY        -0.00505   0.23795  -0.03375   0.02675  -0.00727
  23        2PZ         0.21973  -0.02612  -0.19652  -0.01697  -0.02270
  24        3S         -0.00149  -0.03947  -0.02094   0.10972   0.12242
  25        3PX         0.00996   0.03419   0.04185  -0.19580  -0.21485
  26        3PY        -0.00617   0.33705  -0.04745   0.03617  -0.01570
  27        3PZ         0.32543  -0.03695  -0.28002  -0.02201  -0.03168
  28        4S          0.00950   0.02306   0.00795   0.22188   0.20309
  29        4PX         0.00529   0.00136   0.03456  -0.30398  -0.35260
  30        4PY        -0.00895   0.38267  -0.06773   0.03864   0.00949
  31        4PZ         0.30106  -0.03991  -0.36369  -0.03701  -0.05358
  32        5D 0        0.00138   0.00103   0.00130  -0.00043   0.00197
  33        5D+1       -0.02148  -0.00002  -0.00943  -0.00254  -0.00322
  34        5D-1       -0.00263  -0.00025  -0.00205  -0.00088  -0.00062
  35        5D+2       -0.00034  -0.00364  -0.00031  -0.00073  -0.00508
  36        5D-2        0.00003   0.00017  -0.00201   0.00521   0.00060
  37 3   N  1S         -0.02339   0.01026  -0.00760  -0.05792  -0.00360
  38        2S         -0.03764   0.01655  -0.01222  -0.09206  -0.00747
  39        2PX        -0.01634  -0.05686  -0.04390   0.05281   0.17038
  40        2PY         0.00644   0.03752   0.00710  -0.01543  -0.07474
  41        2PZ        -0.17011  -0.03384  -0.10757   0.05124  -0.04407
  42        3S          0.11718  -0.05036   0.03233   0.25441   0.05054
  43        3PX        -0.02184  -0.09380  -0.07066   0.10122   0.23524
  44        3PY         0.00939   0.05100   0.01146  -0.02378  -0.08704
  45        3PZ        -0.24757  -0.05056  -0.14805   0.08007  -0.06000
  46        4S          0.12605  -0.15401   0.07646   0.96122  -0.16041
  47        4PX        -0.04346  -0.11032  -0.12394   0.00082   0.64644
  48        4PY         0.01094   0.01498   0.04888  -0.05502  -0.33923
  49        4PZ        -0.29362  -0.07985  -0.21494   0.14002  -0.12070
  50        5D 0       -0.01042  -0.00193  -0.00268   0.00956   0.00350
  51        5D+1        0.00073  -0.00215   0.01906   0.00769   0.01122
  52        5D-1        0.00017   0.00235  -0.00267  -0.00090  -0.00072
  53        5D+2        0.00006  -0.00616   0.00028  -0.00722  -0.01786
  54        5D-2        0.00092  -0.02153   0.00551  -0.00696  -0.00673
  55 4   H  1S         -0.03126  -0.03918  -0.01735  -0.06502  -0.00709
  56        2S         -0.02657  -0.08711  -0.04011  -0.06001  -0.05750
  57        3S         -0.02353  -0.01613   0.01290  -0.82830   0.10155
  58        4PX        -0.00251  -0.00192  -0.00289   0.02301   0.01417
  59        4PY        -0.00348  -0.00151  -0.00600   0.00559  -0.01333
  60        4PZ        -0.01406   0.00052  -0.01201  -0.00078   0.00014
  61 5   H  1S         -0.03534   0.04735  -0.04027  -0.02831   0.04130
  62        2S         -0.03039   0.10841  -0.11062   0.02021   0.02782
  63        3S         -0.02016   0.11776  -0.05205  -0.61731   1.12154
  64        4PX        -0.00105  -0.00823   0.00102   0.01413   0.00699
  65        4PY         0.00495  -0.00150   0.00892  -0.01114   0.01995
  66        4PZ        -0.01359  -0.00717  -0.00868  -0.00270   0.00755
                          16        17        18        19        20
                           V         V         V         V         V
     Eigenvalues --     0.06844   0.29263   0.34588   0.38375   0.52148
   1 1   N  1S          0.02422  -0.00088  -0.00600   0.00688   0.03777
   2        2S          0.03896   0.00123  -0.00978   0.01042   0.07568
   3        2PX         0.01386   0.25420   0.06067   0.14472  -0.05413
   4        2PY        -0.03355  -0.01732   0.08307  -0.00022   0.01093
   5        2PZ         0.01730   0.01868   0.00838  -0.03308  -0.00444
   6        3S         -0.11190  -0.05381   0.02801  -0.00938  -0.51785
   7        3PX         0.01707   0.41499   0.10279   0.17793  -0.05404
   8        3PY        -0.05898  -0.03428   0.14036   0.00199  -0.00098
   9        3PZ         0.02380   0.01988   0.01372  -0.06213   0.01045
  10        4S         -0.43644   0.01033   0.19723  -0.22230  -0.74821
  11        4PX         0.12688   1.51433   0.54599   1.52964  -0.17441
  12        4PY        -0.09024  -0.05254   0.33966  -0.01216  -0.13487
  13        4PZ         0.05786   0.15516   0.03831  -0.09386   0.14041
  14        5D 0       -0.00523   0.00972  -0.00018   0.00853   0.03348
  15        5D+1        0.00003   0.00555   0.00389  -0.00777  -0.01908
  16        5D-1       -0.00392  -0.00258   0.01501   0.00100   0.00368
  17        5D+2        0.00816  -0.02275  -0.00062   0.00620  -0.06225
  18        5D-2       -0.00308  -0.01007   0.01599  -0.00608   0.00925
  19 2   N  1S         -0.01014   0.03786   0.00713   0.02099  -0.00165
  20        2S         -0.01681   0.06244   0.00992   0.03432   0.00305
  21        2PX        -0.06177   0.12980   0.02808   0.03812   0.04745
  22        2PY         0.02151   0.03241  -0.00196   0.01499  -0.04569
  23        2PZ        -0.00377  -0.01592  -0.00851   0.00241   0.02956
  24        3S          0.06109  -0.19671   0.01156  -0.09421  -0.12893
  25        3PX        -0.08930   0.17413   0.00818   0.02566   0.31550
  26        3PY         0.03318   0.02713   0.01999   0.00939  -0.10913
  27        3PZ        -0.00365  -0.01327  -0.01353  -0.00134   0.09201
  28        4S          0.05604  -1.03920  -0.52177  -0.96068   0.57845
  29        4PX        -0.13080   0.89152   0.45496   0.76423  -0.92203
  30        4PY         0.03582   0.23550  -0.03977   0.19109   0.07128
  31        4PZ        -0.01686  -0.10951  -0.03109  -0.01292  -0.12440
  32        5D 0        0.00078  -0.01001  -0.00178  -0.00600   0.02155
  33        5D+1       -0.00071  -0.00530  -0.00336   0.00410   0.00557
  34        5D-1       -0.00114  -0.00227   0.00066   0.00087   0.00035
  35        5D+2       -0.00227   0.01336   0.01066   0.00592  -0.03351
  36        5D-2        0.00316   0.01304  -0.00822   0.00757  -0.01939
  37 3   N  1S         -0.00638  -0.01344   0.00029  -0.05522  -0.00133
  38        2S         -0.01075  -0.01909   0.00130  -0.09331   0.00183
  39        2PX         0.09369   0.09746  -0.00514   0.01458  -0.17084
  40        2PY         0.14163   0.00306  -0.12795  -0.01624  -0.00525
  41        2PZ        -0.00426  -0.01916  -0.01533   0.07650   0.06412
  42        3S          0.03807   0.00571  -0.01908   0.26493  -0.05868
  43        3PX         0.12366   0.05654  -0.03106  -0.02012  -0.63714
  44        3PY         0.14457   0.04139  -0.26992  -0.01653   0.00868
  45        3PZ        -0.00638  -0.05177  -0.04097   0.18095   0.19254
  46        4S          0.07276   0.74131   0.15359   2.07033  -0.01640
  47        4PX         0.38056   1.32592   0.14500   0.22268   1.21128
  48        4PY         0.60145  -0.03464  -1.18920  -0.16106   0.00373
  49        4PZ         0.00472  -0.08334  -0.06772   0.73190  -0.34062
  50        5D 0        0.00194   0.00886   0.00048   0.02569   0.02895
  51        5D+1        0.00470  -0.00448   0.00067  -0.00780   0.00821
  52        5D-1       -0.00126  -0.00059   0.01154  -0.00011   0.00457
  53        5D+2       -0.00435  -0.03535  -0.00673   0.00379  -0.02042
  54        5D-2        0.00960   0.02365  -0.00091   0.00637  -0.00109
  55 4   H  1S          0.03823   0.07153  -0.08176  -0.09167  -0.03442
  56        2S         -0.04206   0.76091  -1.21076  -1.56719  -0.05190
  57        3S          1.59768  -0.30434   0.72803   0.63969   0.38512
  58        4PX        -0.00665   0.01642  -0.00463  -0.02417   0.05086
  59        4PY        -0.02200  -0.00551  -0.03114   0.01074   0.04482
  60        4PZ         0.01309  -0.00215  -0.02438   0.03323  -0.01452
  61 5   H  1S         -0.02686   0.01262   0.10320  -0.09002  -0.00810
  62        2S          0.02197   0.19922   1.52711  -1.45536   0.00886
  63        3S         -1.25984   0.11452  -0.78578   0.60588   0.09582
  64        4PX         0.01210   0.03127   0.00674  -0.01694   0.01302
  65        4PY        -0.01310   0.01203  -0.02952  -0.00557  -0.03887
  66        4PZ        -0.01201  -0.00363   0.01531   0.03819   0.00043
                          21        22        23        24        25
                           V         V         V         V         V
     Eigenvalues --     0.53757   0.58893   0.59842   0.61501   0.65806
   1 1   N  1S          0.00297  -0.00608   0.00438   0.02409   0.01311
   2        2S          0.00584  -0.01209   0.00765   0.04633   0.02561
   3        2PX        -0.05004  -0.06187  -0.05738  -0.11950  -0.02714
   4        2PY        -0.00317  -0.11955   0.06050   0.04955  -0.06244
   5        2PZ        -0.11945   0.03613   0.07752  -0.02443  -0.01648
   6        3S         -0.02770   0.08076  -0.02632  -0.29907  -0.17298
   7        3PX        -0.08927  -0.12650  -0.12862  -0.29205  -0.16395
   8        3PY        -0.02202  -0.42370   0.21967   0.18512  -0.21957
   9        3PZ        -0.41216   0.12738   0.28329  -0.08873  -0.06633
  10        4S         -0.49747   0.26250  -0.20598   0.58128   0.27009
  11        4PX         0.77797   0.99610   0.96014   1.15283   0.28202
  12        4PY        -0.01093   0.59716  -0.30268  -0.14718   0.09636
  13        4PZ         0.34673  -0.15338  -0.35448   0.18313   0.10711
  14        5D 0        0.01884  -0.00481   0.00250  -0.00480   0.00302
  15        5D+1        0.00738   0.00117   0.01890  -0.02117   0.00524
  16        5D-1       -0.00612   0.00864   0.00098  -0.00017  -0.01199
  17        5D+2       -0.01847   0.02787  -0.01020  -0.00813   0.00364
  18        5D-2        0.00726  -0.00214   0.01420   0.01186   0.01412
  19 2   N  1S         -0.00494   0.01427   0.00754   0.04040   0.02819
  20        2S         -0.00879   0.02527   0.01392   0.07702   0.05571
  21        2PX        -0.02412  -0.09271  -0.07516  -0.19303  -0.04574
  22        2PY        -0.01720  -0.18510   0.06915   0.02695   0.04892
  23        2PZ        -0.05986   0.05328   0.17330  -0.07805   0.00415
  24        3S          0.05060  -0.10686  -0.06700  -0.45742  -0.38036
  25        3PX        -0.01829  -0.26607  -0.19937  -0.53725  -0.08471
  26        3PY        -0.05040  -0.60394   0.23440   0.11167   0.14787
  27        3PZ        -0.22877   0.17887   0.58890  -0.26413   0.01181
  28        4S         -0.35341  -0.66348  -0.45279  -0.39615   0.17877
  29        4PX         0.14401   0.87422   0.55836   1.21839   0.16472
  30        4PY         0.11814   0.85820  -0.19302  -0.02731  -0.20828
  31        4PZ         0.23831  -0.25518  -0.78494   0.30865  -0.04428
  32        5D 0        0.00481   0.00575   0.00697   0.01718   0.01130
  33        5D+1        0.02332  -0.00696  -0.01990   0.01197   0.00443
  34        5D-1        0.00458  -0.00206  -0.00233   0.00092  -0.00324
  35        5D+2       -0.01105  -0.01740  -0.00966  -0.03013  -0.02666
  36        5D-2       -0.00405   0.02171  -0.01672  -0.02532  -0.00087
  37 3   N  1S         -0.01196   0.00535  -0.00349   0.00941   0.00042
  38        2S         -0.01953   0.01023  -0.00495   0.01659   0.00012
  39        2PX        -0.07735  -0.03087  -0.05019  -0.07396  -0.01120
  40        2PY         0.02327   0.01164   0.02276   0.06357  -0.23157
  41        2PZ        -0.18768  -0.01558  -0.09381   0.06852  -0.00960
  42        3S          0.00689  -0.09075  -0.04742  -0.06031   0.01815
  43        3PX        -0.25784  -0.07681  -0.16496  -0.17831  -0.01970
  44        3PY         0.07285   0.01096   0.08355   0.18341  -0.69670
  45        3PZ        -0.64497  -0.03278  -0.29327   0.23580  -0.02725
  46        4S          1.08546   0.63021   0.95983   0.23443   0.03813
  47        4PX         0.65519   0.30544   0.57446   0.62857   0.15433
  48        4PY        -0.20765  -0.38411  -0.11165  -0.45874   1.78808
  49        4PZ         1.09686   0.18081   0.72733  -0.46500   0.03310
  50        5D 0       -0.01982  -0.00860  -0.00651  -0.00522  -0.00263
  51        5D+1       -0.03467  -0.00002  -0.00655   0.00938  -0.00176
  52        5D-1        0.00472  -0.00103  -0.00169  -0.00914   0.02113
  53        5D+2        0.00586   0.00418   0.00529   0.01471  -0.01253
  54        5D-2        0.00049  -0.00825   0.00590   0.01066  -0.04770
  55 4   H  1S          0.00471  -0.00410   0.00792   0.01715  -0.02417
  56        2S         -0.32778  -0.25326  -0.17715   0.17794   0.31149
  57        3S         -0.00741   0.17501  -0.08015  -0.17947   0.89448
  58        4PX        -0.04693  -0.06174  -0.03355  -0.00326   0.06242
  59        4PY        -0.02273  -0.00832  -0.01010   0.00022   0.09521
  60        4PZ         0.01239  -0.00550   0.02092  -0.00727  -0.04456
  61 5   H  1S          0.00123   0.00958  -0.00836  -0.00944   0.02919
  62        2S         -0.28053   0.10684  -0.32487   0.18627  -0.18026
  63        3S         -0.02020  -0.12677   0.22485   0.37461  -1.01349
  64        4PX        -0.02624   0.01304  -0.04903   0.01646  -0.03727
  65        4PY         0.02734  -0.00085   0.02021  -0.04074   0.10748
  66        4PZ         0.01236   0.00911   0.00713  -0.03702   0.04767
                          26        27        28        29        30
                           V         V         V         V         V
     Eigenvalues --     0.68676   0.70596   0.73397   0.82098   0.95692
   1 1   N  1S         -0.00936   0.00883  -0.05537  -0.04257   0.00584
   2        2S         -0.01622   0.01762  -0.11116  -0.08623   0.01039
   3        2PX        -0.01865   0.01789  -0.05449  -0.03884  -0.10567
   4        2PY        -0.16958  -0.01875   0.00750   0.01335   0.02136
   5        2PZ         0.01931  -0.18909  -0.01229  -0.02596  -0.01769
   6        3S          0.06796  -0.13478   0.80717   0.64948  -0.03791
   7        3PX        -0.06248   0.13404   0.14225  -0.47698  -0.50860
   8        3PY        -0.60757  -0.06556   0.04494   0.05516   0.09291
   9        3PZ         0.07407  -0.66376  -0.03354  -0.12198  -0.07920
  10        4S         -0.08964   0.54372  -0.93248  -1.02128  -0.45141
  11        4PX         0.53145  -0.92076   0.21455   1.76311   5.23355
  12        4PY         1.47103   0.22538  -0.24122  -0.12829  -0.23959
  13        4PZ        -0.12472   1.38766   0.15633   0.47021   0.34478
  14        5D 0        0.01524  -0.00518  -0.03423  -0.02521   0.02537
  15        5D+1       -0.00277  -0.00078  -0.02592   0.04956   0.04127
  16        5D-1        0.02014  -0.00230  -0.00915  -0.00132   0.00615
  17        5D+2       -0.00431   0.00798   0.04678   0.02418  -0.00363
  18        5D-2       -0.00027   0.00637   0.04736  -0.05024  -0.08729
  19 2   N  1S         -0.00922   0.00085  -0.07341   0.01528  -0.04162
  20        2S         -0.01775   0.00136  -0.14624   0.02979  -0.08503
  21        2PX        -0.00889  -0.01465  -0.05197   0.05672   0.00230
  22        2PY         0.12409   0.00748   0.01459  -0.00069   0.00519
  23        2PZ        -0.00881   0.11743  -0.00969   0.01597  -0.00449
  24        3S          0.12346  -0.00742   1.04380  -0.21024   0.73881
  25        3PX         0.00552  -0.08405  -0.28059   0.20582   0.18686
  26        3PY         0.45358   0.03830   0.02051  -0.02712  -0.03474
  27        3PZ        -0.03008   0.42748  -0.02456   0.09121   0.02073
  28        4S         -0.53367   0.41079  -1.05037  -0.50179  -3.77562
  29        4PX         0.26859  -0.06587   0.60968  -0.03604   1.53485
  30        4PY        -1.00369  -0.18372   0.05429   0.20471   0.65324
  31        4PZ         0.05828  -0.97436  -0.00357  -0.32006  -0.27426
  32        5D 0        0.00931  -0.00234  -0.03552   0.00446   0.02469
  33        5D+1        0.00056  -0.01429  -0.00272  -0.03089  -0.03523
  34        5D-1        0.00320  -0.00290  -0.00197  -0.00772  -0.01205
  35        5D+2       -0.00398   0.01068   0.06133  -0.01453  -0.05860
  36        5D-2       -0.02410  -0.00475   0.01781   0.02112   0.06353
  37 3   N  1S         -0.00277   0.01645  -0.00235  -0.07475   0.04829
  38        2S         -0.00446   0.02988  -0.00511  -0.14716   0.09632
  39        2PX        -0.02879   0.02264  -0.14452  -0.03688   0.02148
  40        2PY         0.05663   0.02028  -0.03607   0.01476  -0.01939
  41        2PZ         0.00781   0.04281   0.03619   0.04786  -0.00259
  42        3S          0.00722  -0.13512   0.05016   1.16557  -0.95866
  43        3PX        -0.09927   0.07637  -0.36042   0.12586   0.04148
  44        3PY         0.15657   0.05549  -0.13255   0.02030  -0.02479
  45        3PZ         0.01589   0.17961   0.11945   0.03423   0.15534
  46        4S          0.16066  -0.59287  -0.09057  -1.39240   5.35145
  47        4PX         0.20356  -0.54165   1.10411   1.00394   1.72986
  48        4PY        -1.19315  -0.15598   0.58197  -0.38329  -0.58965
  49        4PZ         0.01506  -0.77876  -0.29574  -0.56042   0.49284
  50        5D 0        0.00713   0.00060  -0.01213  -0.05538   0.01776
  51        5D+1        0.00076   0.02273   0.02672   0.03283  -0.07231
  52        5D-1       -0.00080  -0.00489  -0.01447   0.00337   0.05315
  53        5D+2        0.01471  -0.01345   0.02628   0.09980   0.03818
  54        5D-2        0.04234   0.00571  -0.03923  -0.00847   0.09555
  55 4   H  1S          0.01755  -0.00153  -0.01312   0.00852   0.07943
  56        2S         -0.47724   0.16920   0.31804   0.53485  -0.84179
  57        3S          0.05065  -0.26300   0.49134   0.45407  -0.07494
  58        4PX        -0.13508   0.05265   0.06893  -0.01550  -0.32386
  59        4PY        -0.00883  -0.05498   0.05928   0.13823  -0.01896
  60        4PZ        -0.02733  -0.01546  -0.01748  -0.16597   0.08123
  61 5   H  1S         -0.02576  -0.00274  -0.01113   0.00592   0.01186
  62        2S          0.34926   0.28631  -0.15060   0.73269  -0.48835
  63        3S          0.20419  -0.08704   0.16000   0.55113  -0.07166
  64        4PX         0.11788   0.08631  -0.02182  -0.00137  -0.01348
  65        4PY        -0.06975   0.01244   0.01641  -0.15122   0.04788
  66        4PZ         0.02967  -0.01376  -0.05036  -0.13981   0.29732
                          31        32        33        34        35
                           V         V         V         V         V
     Eigenvalues --     1.05686   1.20743   1.35853   1.52688   1.61695
   1 1   N  1S          0.07515   0.02539   0.00954   0.00118  -0.00004
   2        2S          0.15252   0.05122   0.02024   0.00169  -0.00214
   3        2PX        -0.00231  -0.01013  -0.08478   0.01906   0.03230
   4        2PY        -0.01605  -0.02854  -0.01727  -0.01461  -0.00022
   5        2PZ         0.01819   0.00398  -0.00353   0.00458  -0.00560
   6        3S         -1.33505  -0.45305  -0.19448  -0.00049   0.12198
   7        3PX         0.03156  -0.07509  -0.43048   0.11895   0.14883
   8        3PY         0.01875  -0.13027  -0.10750  -0.01738  -0.03256
   9        3PZ         0.04007  -0.06184   0.04772  -0.00661   0.02761
  10        4S          4.24927   1.30043   0.54007  -0.06568  -1.40607
  11        4PX        -0.37240   0.81545   4.08756  -0.96638   0.51034
  12        4PY         0.31229   0.52715   0.45059  -0.21222  -0.03080
  13        4PZ        -0.27786   0.28973  -0.25845   0.02802  -0.15474
  14        5D 0       -0.05793   0.04506  -0.01624  -0.01076   0.00231
  15        5D+1        0.00007   0.18500  -0.18534  -0.00375   0.34642
  16        5D-1        0.01148  -0.03597   0.03021  -0.08814   0.04985
  17        5D+2        0.04746   0.04433   0.02647   0.00183  -0.02654
  18        5D-2       -0.02187   0.14158  -0.00715  -0.09257  -0.11085
  19 2   N  1S         -0.05387  -0.01793  -0.01807  -0.00066   0.00444
  20        2S         -0.10964  -0.03717  -0.03904  -0.00040   0.00940
  21        2PX        -0.04865  -0.00731   0.02312  -0.02162  -0.00384
  22        2PY        -0.01889  -0.00558   0.01645   0.01867   0.02640
  23        2PZ         0.00713  -0.01385   0.01543   0.00182  -0.04559
  24        3S          0.94089   0.35372   0.44083  -0.02813  -0.10237
  25        3PX        -0.08486   0.01784   0.16507  -0.05956   0.00020
  26        3PY        -0.02763   0.03460   0.03069   0.00250   0.00934
  27        3PZ         0.00115   0.02118  -0.01249  -0.00010  -0.00954
  28        4S         -2.00365  -1.29281  -3.15084   0.64631   0.17230
  29        4PX         1.14904   0.68340   1.45164  -0.27614  -0.12687
  30        4PY         0.12873  -0.07963   0.27250  -0.05054  -0.01194
  31        4PZ         0.02506  -0.19283  -0.00096   0.02523   0.02155
  32        5D 0        0.00829   0.01892  -0.00983  -0.01202   0.02085
  33        5D+1        0.01669  -0.10169   0.09874   0.02331  -0.27363
  34        5D-1        0.00841  -0.01903   0.02430  -0.02324  -0.05084
  35        5D+2       -0.00314   0.02927  -0.00746  -0.02932  -0.07502
  36        5D-2       -0.01725  -0.08296   0.04452   0.07227   0.12002
  37 3   N  1S         -0.04082  -0.01368   0.01706  -0.00133   0.04845
  38        2S         -0.08162  -0.02808   0.03639  -0.00295   0.10346
  39        2PX         0.03665   0.03989   0.00566  -0.00450   0.01449
  40        2PY        -0.01904   0.01932   0.01717  -0.00268  -0.00176
  41        2PZ         0.01864   0.02167  -0.01504   0.00673   0.06100
  42        3S          0.82606   0.29148  -0.48004   0.06030  -0.98571
  43        3PX         0.13434   0.07911   0.06652  -0.04189  -0.00493
  44        3PY        -0.05413   0.02796   0.02816  -0.05979   0.02839
  45        3PZ        -0.10346   0.00855   0.03359  -0.00659  -0.06343
  46        4S         -3.06203  -0.74575   3.74368  -0.77230   2.46963
  47        4PX        -1.18395   0.24150   0.59379   0.02969   0.64012
  48        4PY         0.13671  -0.37262  -0.69276   1.09520  -0.26999
  49        4PZ        -0.21249  -0.49788   0.98729  -0.13010   0.95319
  50        5D 0       -0.04087   0.05105  -0.08186   0.00574  -0.28458
  51        5D+1        0.01930  -0.21586   0.18594  -0.02585  -0.22660
  52        5D-1        0.03010  -0.08684  -0.09715   0.08113   0.03744
  53        5D+2        0.01462   0.03372  -0.15644   0.03304  -0.01734
  54        5D-2        0.07300  -0.17660  -0.06966  -0.03607   0.06071
  55 4   H  1S          0.00054  -0.02850   0.03491  -0.12219   0.11121
  56        2S          0.48568   0.37380  -1.05201   0.84008  -0.94046
  57        3S         -0.03175  -0.00854   0.03948  -0.04731   0.11898
  58        4PX        -0.06861   0.12477   0.42355   0.19894  -0.14182
  59        4PY         0.09604   0.16080  -0.44077  -0.45572   0.08630
  60        4PZ        -0.26715   0.44961  -0.02162  -0.50093  -0.43135
  61 5   H  1S         -0.05687   0.03622   0.05769   0.06355   0.01358
  62        2S          0.60055   0.52323  -0.66848  -0.47355  -0.66247
  63        3S         -0.04037   0.03091   0.04176   0.00269   0.02649
  64        4PX         0.17358  -0.52035  -0.11443  -0.47623  -0.22140
  65        4PY        -0.07474  -0.18225   0.22160  -0.48487   0.06767
  66        4PZ        -0.10437  -0.08969  -0.38828   0.45725  -0.51844
                          36        37        38        39        40
                           V         V         V         V         V
     Eigenvalues --     1.65286   1.70339   1.77641   1.82524   1.87163
   1 1   N  1S          0.00860   0.00758  -0.01146   0.00732   0.01126
   2        2S          0.01525   0.01217  -0.02306   0.01171   0.02183
   3        2PX         0.05544   0.04430  -0.02544   0.02509   0.00842
   4        2PY        -0.02463   0.05915  -0.02951  -0.04900   0.01598
   5        2PZ         0.00027  -0.00786   0.04252  -0.04505  -0.00199
   6        3S         -0.08074  -0.00225   0.22866  -0.01946  -0.18607
   7        3PX         0.15738  -0.00145  -0.10666  -0.05580   0.01730
   8        3PY        -0.05617   0.00948   0.02327  -0.00329  -0.03354
   9        3PZ        -0.03788  -0.02161  -0.03480   0.01187   0.03889
  10        4S         -0.35821  -1.04103  -0.90869  -0.60752   0.54278
  11        4PX        -0.56659   1.25006   1.38733   1.26533  -0.23857
  12        4PY         0.25594  -0.23293  -0.17726  -0.10435   0.15473
  13        4PZ         0.24411   0.17053   0.15050   0.05068  -0.15644
  14        5D 0        0.09477   0.07562   0.03714  -0.51114  -0.10289
  15        5D+1       -0.30645  -0.22387  -0.15920  -0.03149   0.16296
  16        5D-1       -0.10131   0.06900  -0.48927   0.07665  -0.47823
  17        5D+2        0.10063   0.15063  -0.11538  -0.24750   0.05149
  18        5D-2       -0.35023   0.21076   0.27190   0.18115  -0.11237
  19 2   N  1S          0.00345   0.00755  -0.00121   0.00498   0.00154
  20        2S          0.00734   0.01354  -0.00248   0.00881   0.00261
  21        2PX        -0.00960   0.03754   0.01675   0.03777   0.00563
  22        2PY         0.04697   0.00356  -0.04321  -0.03232   0.02177
  23        2PZ         0.04403   0.02642   0.04179  -0.01308  -0.02033
  24        3S         -0.08413  -0.07053   0.03044  -0.03684  -0.00525
  25        3PX        -0.02204   0.09335   0.03086   0.08310   0.02278
  26        3PY         0.01095   0.01733  -0.00770   0.00109   0.01008
  27        3PZ         0.01245   0.00321   0.00964  -0.00508  -0.00940
  28        4S          0.50753  -0.43852  -0.61019  -0.57516  -0.01868
  29        4PX        -0.23588   0.12856   0.24067   0.20474   0.01787
  30        4PY        -0.11847   0.09038   0.13905   0.12176  -0.05841
  31        4PZ        -0.03566  -0.05660  -0.07448  -0.02414   0.05943
  32        5D 0        0.01334  -0.01012  -0.02793  -0.36653  -0.06036
  33        5D+1        0.26146   0.15975   0.32374  -0.15113  -0.03590
  34        5D-1        0.00806   0.05556  -0.18380   0.04556  -0.64592
  35        5D+2       -0.06756   0.08345   0.10510  -0.05625  -0.03039
  36        5D-2        0.25633   0.00692  -0.31435  -0.32958   0.10866
  37 3   N  1S         -0.00499   0.01083   0.01731   0.00307  -0.00324
  38        2S         -0.00946   0.02546   0.03600   0.01273  -0.00468
  39        2PX         0.01528   0.02700   0.08358   0.00636  -0.07525
  40        2PY         0.02667  -0.07647   0.03432   0.04855  -0.04684
  41        2PZ         0.01522   0.02078  -0.01933   0.04212   0.04210
  42        3S          0.06422  -0.36454  -0.36391  -0.27458   0.02433
  43        3PX        -0.06871  -0.07010   0.14502   0.00566  -0.04849
  44        3PY         0.19042  -0.19934   0.15260   0.04969   0.08640
  45        3PZ         0.07740   0.05920  -0.00345   0.01470  -0.02089
  46        4S         -0.61356   1.70894   1.87945   1.21119  -0.46978
  47        4PX         0.45057   1.26019   0.66175   0.91325  -0.30929
  48        4PY        -0.67387   0.14916  -0.11249  -0.17617  -0.12536
  49        4PZ        -0.36067   0.25866   0.37829   0.10691  -0.02454
  50        5D 0        0.07170   0.04136  -0.06435   0.02409  -0.02940
  51        5D+1        0.06026   0.08715  -0.18611   0.19443   0.10224
  52        5D-1       -0.13616   0.18046  -0.07360  -0.15100   0.09906
  53        5D+2        0.19932  -0.00664  -0.17423   0.12793   0.15157
  54        5D-2        0.17985  -0.32215   0.05994  -0.00310  -0.09134
  55 4   H  1S          0.07512  -0.50847   0.35830  -0.21144  -0.53400
  56        2S         -0.09460   0.72745  -0.73733   0.24701   0.75690
  57        3S          0.11982  -0.34167   0.25257  -0.00237  -0.39349
  58        4PX        -0.16713  -0.66042  -0.07011  -0.15245   0.12000
  59        4PY         0.22933  -0.00990   0.24613   0.04740  -0.05051
  60        4PZ         0.00285  -0.11996  -0.31239  -0.16800   0.13138
  61 5   H  1S         -0.39782   0.27405   0.23556  -0.51276  -0.06564
  62        2S          1.15336  -0.70296  -0.70913   0.70176   0.14189
  63        3S         -0.24159   0.32767   0.14740  -0.28577   0.04454
  64        4PX        -0.50614  -0.17384  -0.14622  -0.24402   0.19527
  65        4PY         0.19143  -0.06273   0.02974   0.05808   0.15232
  66        4PZ        -0.14363  -0.33720   0.01335   0.00918  -0.03504
                          41        42        43        44        45
                           V         V         V         V         V
     Eigenvalues --     1.88517   2.02887   2.04065   2.11044   2.22026
   1 1   N  1S          0.00593   0.00721  -0.00605  -0.02641   0.00027
   2        2S          0.01011   0.01341  -0.01198  -0.04937  -0.00051
   3        2PX         0.00456  -0.00988   0.00975   0.02170  -0.02090
   4        2PY        -0.00998   0.00636  -0.04326  -0.04087   0.01148
   5        2PZ        -0.03139   0.03160  -0.00453  -0.01376   0.12590
   6        3S         -0.03342  -0.09488   0.09973   0.34799   0.03839
   7        3PX        -0.06965  -0.02076   0.02032   0.01118  -0.03955
   8        3PY         0.02418  -0.02483   0.00657   0.07273   0.01029
   9        3PZ         0.04104   0.00897  -0.01508   0.00200  -0.08983
  10        4S         -0.30460   0.19431  -0.14045  -0.05254   0.09719
  11        4PX         0.91912   0.13722   0.12645   0.72876   0.29027
  12        4PY        -0.16614   0.05371  -0.01003  -0.15170   0.02513
  13        4PZ        -0.14329  -0.03507   0.10247  -0.06706   0.37540
  14        5D 0        0.27541  -0.00140  -0.43767   0.45960  -0.02088
  15        5D+1        0.09746   0.10720  -0.04836   0.05867   0.16197
  16        5D-1        0.00624  -0.57094  -0.03726  -0.06005   0.19119
  17        5D+2        0.23765   0.08002  -0.40150  -0.28260  -0.02513
  18        5D-2        0.27469   0.00280  -0.14124  -0.08553   0.04448
  19 2   N  1S          0.00671   0.00297  -0.00576  -0.02333   0.00198
  20        2S          0.01178   0.00517  -0.01077  -0.04359   0.00346
  21        2PX         0.03924   0.01420  -0.01724  -0.05377   0.01957
  22        2PY        -0.02838   0.00815  -0.00165  -0.03184  -0.01098
  23        2PZ        -0.02804  -0.00442   0.00975  -0.00079   0.01929
  24        3S         -0.06097  -0.02584   0.07405   0.33409  -0.02258
  25        3PX         0.07546   0.03292  -0.05220  -0.15673   0.01700
  26        3PY        -0.00175   0.00740  -0.01108  -0.03970  -0.00027
  27        3PZ        -0.01229   0.00011   0.00551   0.00463   0.03136
  28        4S         -0.41596  -0.11784  -0.10072  -0.72583  -0.14842
[...]
                     A                      A                      A
 Frequencies --  1828.9461              3450.6516              3626.6951
 Red. masses --    11.5725                 1.0492                 1.0964
 Frc consts  --    22.8076                 7.3607                 8.4966
 IR Inten    --    47.8115                 3.4462                24.9196
  Atom  AN      X      Y      Z        X      Y      Z        X      Y      Z
     1   7     0.50   0.38  -0.02    -0.00   0.00   0.00    -0.00   0.00  -0.00
     2   7    -0.54  -0.35   0.00     0.00  -0.00   0.00    -0.00  -0.00  -0.00
     3   7     0.07  -0.04   0.02    -0.02   0.04   0.03     0.04   0.07  -0.02
     4   1    -0.29   0.29  -0.07     0.29   0.29  -0.17    -0.58  -0.56   0.39
     5   1    -0.12  -0.03  -0.02     0.02  -0.84  -0.30     0.01  -0.40  -0.17

 -------------------
 - Thermochemistry -
 -------------------
 Temperature   298.150 Kelvin.  Pressure   1.00000 Atm.
 Atom     1 has atomic number  7 and mass  14.00307
 Atom     2 has atomic number  7 and mass  14.00307
 Atom     3 has atomic number  7 and mass  14.00307
 Atom     4 has atomic number  1 and mass   1.00783
 Atom     5 has atomic number  1 and mass   1.00783
 Molecular mass:    44.02487 amu.
 Principal axes and moments of inertia in atomic units:
                           1         2         3
     Eigenvalues --    18.59666 146.96657 163.25841
           X            0.99970  -0.00860  -0.02272
           Y            0.00922   0.99958   0.02735
           Z            0.02247  -0.02755   0.99937
 This molecule is an asymmetric top.
 Rotational symmetry number  1.
 Rotational temperatures (Kelvin)      4.65749     0.58934     0.53053
 Rotational constants (GHZ):          97.04654    12.27994    11.05451
 Zero-point vibrational energy      84928.4 (Joules/Mol)
                                   20.29839 (Kcal/Mol)
 Warning -- explicit consideration of   3 degrees of freedom as
           vibrations may cause significant error
 Vibrational temperatures:    619.37   761.25   790.69  1378.36  1777.99
          (Kelvin)           2287.25  2631.44  4964.71  5218.00
 
 Zero-point correction=                           0.032348 (Hartree/Particle)
 Thermal correction to Energy=                    0.035917
 Thermal correction to Enthalpy=                  0.036861
 Thermal correction to Gibbs Free Energy=         0.007628
 Sum of electronic and zero-point Energies=           -165.273052
 Sum of electronic and thermal Energies=              -165.269483
 Sum of electronic and thermal Enthalpies=            -165.268539
 Sum of electronic and thermal Free Energies=         -165.297772
 
                     E (Thermal)             CV                S
                      KCal/Mol        Cal/Mol-Kelvin    Cal/Mol-Kelvin
 Total                   22.538             10.377             61.527
 Electronic               0.000              0.000              1.377
 Translational            0.889              2.981             37.273
 Rotational               0.889              2.981             20.728
 Vibrational             20.761              4.416              2.149
 Vibration     1          0.792              1.404              0.857
 Vibration     2          0.884              1.186              0.589
 Vibration     3          0.905              1.141              0.545
                       Q            Log10(Q)             Ln(Q)
 Total Bot       0.310153D-03         -3.508424         -8.078445
 Total V=0       0.234627D+12         11.370379         26.181265
 Vib (Bot)       0.178621D-14        -14.748067        -33.958680
 Vib (Bot)    1  0.404594D+00         -0.392981         -0.904871
 Vib (Bot)    2  0.302525D+00         -0.519238         -1.195590
 Vib (Bot)    3  0.285684D+00         -0.544114         -1.252868
 Vib (V=0)       0.135125D+01          0.130736          0.301030
 Vib (V=0)    1  0.114319D+01          0.058119          0.133825
 Vib (V=0)    2  0.108440D+01          0.035189          0.081025
 Vib (V=0)    3  0.107586D+01          0.031756          0.073121
 Electronic      0.200000D+01          0.301030          0.693147
 Translational   0.114816D+08          7.060002         16.256256
 Rotational      0.756155D+04          3.878611          8.930832
 
                                                         intermediate product
                                                             IR Spectrum
 
     3      3                                                       1        1           1                                           
     6      4                                                       8        5           2         9             55  4               
     2      5                                                       2        9           3         5             52  3               
     7      1                                                       9        0           6         8             09  0               
 
     X      X                                                       X        X           X         X             XX  X               
     X                                                              X        X           X         X             XX  X               
     X                                                              X        X                     X             XX  X               
                                                                    X        X                     X             XX  X               
                                                                    X        X                     X             XX                  
                                                                    X        X                                   XX                  
                                                                                                                 XX                  
                                                                                                                 XX                  
                                                                                                                 X                   
                                                                                                                 X                   
                                                                                                                 X                   
                                                                                                                 X                   
                                                                                                                 X                   
                                                                                                                 X                   
                                                                                                                 X                   
                                                                                                                 X                   
                                                                                                                 X                   
                                                                                                                 X                   
                                                                                                                 X                   
                                                                                                                 X                   
 
 ***** Axes restored to original set *****
 -------------------------------------------------------------------
 Center     Atomic                   Forces (Hartrees/Bohr)
 Number     Number              X              Y              Z
 -------------------------------------------------------------------
      1        7          -0.000012363   -0.000012022    0.000174463
      2        7           0.000003746   -0.000026810   -0.000189609
      3        7           0.000021763    0.000029229    0.000117602
      4        1          -0.000049408   -0.000037587   -0.000074727
      5        1           0.000036263    0.000047191   -0.000027728
 -------------------------------------------------------------------
 Cartesian Forces:  Max     0.000189609 RMS     0.000080136
 Force constants in Cartesian coordinates: 
                1             2             3             4             5 
      1  0.303250D+00
      2  0.164719D+00  0.125822D+00
      3  0.249864D+00  0.167898D+00  0.687073D+00
      4 -0.198101D+00 -0.114910D+00 -0.274539D+00  0.165181D+00
      5 -0.122543D+00 -0.928825D-01 -0.198585D+00  0.106835D+00  0.865534D-01
      6 -0.307792D+00 -0.212189D+00 -0.612740D+00  0.292153D+00  0.227189D+00
      7 -0.100692D+00 -0.363308D-01 -0.216997D-01  0.328182D-01  0.135539D-01
      8 -0.510795D-01 -0.295860D-01  0.503481D-01  0.294303D-02  0.202685D-02
      9  0.505864D-01  0.172472D-01 -0.348100D-01 -0.205635D-01 -0.314640D-01
     10  0.111883D-01  0.847251D-04  0.265485D-01  0.263892D-03  0.364427D-03
     11  0.104459D-01 -0.857244D-02 -0.952011D-02 -0.153927D-02  0.579066D-02
     12 -0.183893D-01  0.533505D-03 -0.284797D-01  0.221590D-02  0.188792D-02
     13 -0.156452D-01 -0.135623D-01  0.198263D-01 -0.161715D-03  0.179032D-02
     14 -0.154148D-02  0.521872D-02 -0.101410D-01  0.667162D-02 -0.148837D-02
     15  0.257312D-01  0.265103D-01 -0.110431D-01  0.733204D-03  0.972175D-03
                6             7             8             9            10 
      6  0.751933D+00
      7  0.164194D-01  0.483389D+00
      8 -0.236616D-01  0.236053D+00  0.316014D+00
      9 -0.141272D+00  0.213910D+00 -0.416845D-01  0.475844D+00
     10  0.437698D-02 -0.249819D+00 -0.123018D-01 -0.218915D+00  0.249029D+00
     11  0.332511D-02  0.832720D-02 -0.252694D-01  0.568446D-01  0.137820D-03
     12 -0.493760D-02 -0.188355D+00  0.224750D-01 -0.237587D+00  0.201076D+00
     13 -0.515760D-02 -0.165696D+00 -0.175615D+00 -0.250176D-01 -0.106624D-01
     14  0.533654D-02 -0.221603D+00 -0.263185D+00 -0.943311D-03  0.117148D-01
     15  0.701672D-02 -0.202749D-01 -0.747704D-02 -0.621749D-01 -0.130863D-01
               11            12            13            14            15 
     11  0.281776D-01
     12 -0.270901D-01  0.266848D+00
     13 -0.173716D-01  0.345213D-02  0.192166D+00
     14 -0.126485D-03  0.219371D-02  0.204758D+00  0.259581D+00
     15 -0.235595D-01  0.415655D-02  0.689676D-02  0.355407D-02  0.620447D-01
 Force constants in internal coordinates: 
                1             2             3             4             5 
      1  0.943855D+00
      2  0.133637D+00  0.219604D+00
      3 -0.531577D-03  0.208172D-03  0.459886D+00
      4  0.298619D-02  0.792062D-02 -0.517149D-02  0.433355D+00
      5  0.859413D-01  0.582455D-01  0.505317D-02 -0.824700D-02  0.243809D+00
      6  0.846982D-02  0.535328D-01  0.761421D-02  0.241185D-02  0.185316D-01
      7 -0.186977D-01  0.432064D-01  0.305479D-02  0.387780D-02 -0.125534D-01
      8 -0.308180D-02 -0.725187D-02  0.103531D-01  0.110827D-01 -0.229499D-02
      9  0.423758D-02 -0.269850D-01 -0.107136D-01 -0.111304D-01  0.437471D-03
     10 -0.630169D-02  0.304653D-01  0.979244D-02  0.720284D-02  0.208828D-02
                6             7             8             9            10 
      6  0.148092D+00
      7 -0.333649D-01  0.142395D+00
      8 -0.447154D-01 -0.425853D-01  0.651022D-01
      9 -0.141398D-01 -0.665526D-02 -0.120520D-01  0.232963D-01
     10  0.107066D-01  0.118239D-01  0.103472D-01 -0.636191D-02  0.222065D-01
 Leave Link  716 at Fri Apr 25 16:43:43 2014, MaxMem=   65536000 cpu:       0.2
 (Enter /apps/gaussian/g09/l103.exe)

 GradGradGradGradGradGradGradGradGradGradGradGradGradGradGradGradGradGrad
 Berny optimization.
 Internal  Forces:  Max     0.000180053 RMS     0.000086503
 Search for a local minimum.
 Step number   1 out of a maximum of    2
 All quantities printed in internal units (Hartrees-Bohrs-Radians)
 Second derivative matrix not updated -- analytic derivatives used.
 The second derivative matrix:
                          R1        R2        R3        R4        A1
           R1           0.94385
           R2           0.13364   0.21960
           R3          -0.00053   0.00021   0.45989
           R4           0.00299   0.00792  -0.00517   0.43336
           A1           0.08594   0.05825   0.00505  -0.00825   0.24381
           A2           0.00847   0.05353   0.00761   0.00241   0.01853
           A3          -0.01870   0.04321   0.00305   0.00388  -0.01255
           A4          -0.00308  -0.00725   0.01035   0.01108  -0.00229
           D1           0.00424  -0.02698  -0.01071  -0.01113   0.00044
           D2          -0.00630   0.03047   0.00979   0.00720   0.00209
                          A2        A3        A4        D1        D2
           A2           0.14809
           A3          -0.03336   0.14240
           A4          -0.04472  -0.04259   0.06510
           D1          -0.01414  -0.00666  -0.01205   0.02330
           D2           0.01071   0.01182   0.01035  -0.00636   0.02221
     Eigenvalues ---    0.01610   0.03037   0.11590   0.17211   0.20884
     Eigenvalues ---    0.28169   0.43409   0.46176   0.980731000.00000
 Angle between quadratic step and forces=  56.99 degrees.
 Linear search not attempted -- first point.
 Iteration  1 RMS(Cart)=  0.00050590 RMS(Int)=  0.00000042
 Iteration  2 RMS(Cart)=  0.00000028 RMS(Int)=  0.00000025
 Variable       Old X    -DE/DX   Delta X   Delta X   Delta X     New X
                                 (Linear)    (Quad)   (Total)
    R1        2.21195  -0.00018   0.00000  -0.00010  -0.00010   2.21185
    R2        2.66329   0.00000   0.00000  -0.00019  -0.00019   2.66311
    R3        1.91299   0.00008   0.00000   0.00014   0.00014   1.91313
    R4        1.92611   0.00006   0.00000   0.00008   0.00008   1.92619
    A1        2.14476  -0.00016   0.00000  -0.00058  -0.00058   2.14418
    A2        1.89200   0.00005   0.00000   0.00061   0.00061   1.89261
    A3        1.94068   0.00005   0.00000   0.00052   0.00052   1.94120
    A4        1.97055   0.00000   0.00000   0.00048   0.00048   1.97103
    D1       -2.67347  -0.00004   0.00000  -0.00101  -0.00101  -2.67449
    D2       -0.49747   0.00003   0.00000   0.00037   0.00037  -0.49710
         Item               Value     Threshold  Converged?
 Maximum Force            0.000180     0.000450     YES
 RMS     Force            0.000087     0.000300     YES
 Maximum Displacement     0.000667     0.001800     YES
 RMS     Displacement     0.000506     0.001200     YES
 Predicted change in Energy=-1.162352D-07
 Optimization completed.
    -- Stationary point found.
                           ----------------------------
                           !   Optimized Parameters   !
                           ! (Angstroms and Degrees)  !
 --------------------------                            --------------------------
 ! Name  Definition              Value          Derivative Info.                !
 --------------------------------------------------------------------------------
 ! R1    R(1,2)                  1.1705         -DE/DX =   -0.0002              !
 ! R2    R(1,3)                  1.4094         -DE/DX =    0.0                 !
 ! R3    R(3,4)                  1.0123         -DE/DX =    0.0001              !
 ! R4    R(3,5)                  1.0193         -DE/DX =    0.0001              !
 ! A1    A(2,1,3)              122.8857         -DE/DX =   -0.0002              !
 ! A2    A(1,3,4)              108.4038         -DE/DX =    0.0                 !
 ! A3    A(1,3,5)              111.1927         -DE/DX =    0.0                 !
 ! A4    A(4,3,5)              112.9044         -DE/DX =    0.0                 !
 ! D1    D(2,1,3,4)           -153.1788         -DE/DX =    0.0                 !
 ! D2    D(2,1,3,5)            -28.5029         -DE/DX =    0.0                 !
 --------------------------------------------------------------------------------
 GradGradGradGradGradGradGradGradGradGradGradGradGradGradGradGradGradGrad

 Leave Link  103 at Fri Apr 25 16:43:43 2014, MaxMem=   65536000 cpu:       0.0
 (Enter /apps/gaussian/g09/l9999.exe)

 Test job not archived.
 1\1\GINC-ROMEO164\Freq\UM06\6-311G(d,p)\H2N3(2)\ROOT\25-Apr-2014\0\\#P
  Geom=AllCheck Guess=TCheck SCRF=Check Test GenChk UM06/6-311G(d,p) Fr
 eq\\intermediate product\\0,2\N,-0.2330014891,-0.1575222306,0.00982592
 4\N,0.2411086223,0.1872255332,1.0229743512\N,0.4268543328,-0.024326734
 8,-1.228369181\H,-0.2722316766,0.0456619738,-1.9571741224\H,1.07108642
 77,0.7654580394,-1.219486494\\Version=AM64L-G09RevA.02\State=2-A\HF=-1
 65.3053997\S2=0.75534\S2-1=0.\S2A=0.750021\RMSD=1.267e-09\RMSF=8.014e-
 05\ZeroPoint=0.0323475\Thermal=0.0359168\Dipole=-0.0079661,0.4679452,-
 1.0405842\DipoleDeriv=-0.169215,-0.1625092,-0.4077399,-0.0480731,-0.06
 79749,-0.1062362,-0.4517249,-0.071961,0.9578965,-0.0267689,0.0607363,-
 0.0706641,0.0676035,-0.1161361,-0.0783419,0.3818561,0.1645043,-0.56037
 92,-0.153046,0.2077191,0.5430739,0.1452413,-0.2321462,-0.0431965,0.085
 6025,-0.0838091,-0.6925134,0.1344035,-0.0249171,-0.0522185,-0.0262494,
 0.2754381,0.1535764,0.0240211,0.0433527,0.2179805,0.2146264,-0.0810292
 ,-0.0124513,-0.1385223,0.140819,0.0741982,-0.0397548,-0.0520869,0.0770
 157\Polar=16.7575441,3.0701283,13.6887947,0.2385032,1.0822236,32.58465
 4\PG=C01 [X(H2N3)]\NImag=0\\0.30325026,0.16471854,0.12582222,0.2498636
 2,0.16789787,0.68707318,-0.19810127,-0.11491024,-0.27453865,0.16518095
 ,-0.12254346,-0.09288254,-0.19858489,0.10683486,0.08655339,-0.30779184
 ,-0.21218887,-0.61274042,0.29215307,0.22718882,0.75193348,-0.10069206,
 -0.03633076,-0.02169971,0.03281815,0.01355385,0.01641939,0.48338926,-0
 .05107948,-0.02958596,0.05034813,0.00294303,0.00202685,-0.02366160,0.2
 3605311,0.31601368,0.05058636,0.01724717,-0.03480999,-0.02056352,-0.03
 146402,-0.14127217,0.21390978,-0.04168447,0.47584411,0.01118829,0.0000
 8473,0.02654847,0.00026389,0.00036443,0.00437698,-0.24981902,-0.012301
 80,-0.21891505,0.24902926,0.01044589,-0.00857244,-0.00952011,-0.001539
 27,0.00579066,0.00332511,0.00832720,-0.02526937,0.05684464,0.00013782,
 0.02817763,-0.01838933,0.00053351,-0.02847971,0.00221590,0.00188792,-0
 .00493760,-0.18835458,0.02247498,-0.23758706,0.20107588,-0.02709011,0.
 26684782,-0.01564521,-0.01356227,0.01982627,-0.00016172,0.00179032,-0.
 00515760,-0.16569633,-0.17561485,-0.02501757,-0.01066242,-0.01737163,0
 .00345213,0.19216567,-0.00154148,0.00521872,-0.01014100,0.00667162,-0.
 00148837,0.00533654,-0.22160339,-0.26318520,-0.00094331,0.01171483,-0.
 00012649,0.00219371,0.20475843,0.25958133,0.02573119,0.02651033,-0.011
 04306,0.00073320,0.00097218,0.00701672,-0.02027488,-0.00747704,-0.0621
 7490,-0.01308628,-0.02355953,0.00415655,0.00689676,0.00355407,0.062044
 70\\0.00001236,0.00001202,-0.00017446,-0.00000375,0.00002681,0.0001896
 1,-0.00002176,-0.00002923,-0.00011760,0.00004941,0.00003759,0.00007473
 ,-0.00003626,-0.00004719,0.00002773\\\@


 THE MORE PROGRESS PHYSICAL SCIENCES MAKE, THE MORE THEY TEND TO ENTER
 THE DOMAIN OF MATHEMATICS, WHICH IS A KIND OF CENTRE TO WHICH THEY ALL
 CONVERGE.  WE MAY EVEN JUDGE THE DEGREE OF PERFECTION TO WHICH A 
 SCIENCE HAS ARRIVED BY THE FACILITY WITH WHICH IT MAY BE SUBMITTED
 TO CALCULATION.

                               -- ADOLPHE QUETELET, 1796-1874
 Job cpu time:  0 days  0 hours  1 minutes 43.2 seconds.
 File lengths (MBytes):  RWF=      9 Int=      0 D2E=      0 Chk=      1 Scr=      1
 Normal termination of Gaussian 09 at Fri Apr 25 16:43:43 2014.
************
total 1012
drwxrwxr-x 2 henon henon    4096 25 avril 16:43 .
drwxrwxr-x 3 henon henon    4096 25 avril 16:43 ..
-rw-r--r-- 1 henon henon     441 25 avril 16:43 h2n3.inp
-rw-rw-r-- 1 henon henon 1020452 25 avril 16:43 h2n3.out
Run on 12 cores
romeo164
************
