

 Parallel Execution: Process Information
 ==============================================================================
 Rank   Node Name                              NodeID   MyNodeRank  NodeMaster
    0   macbookproeric2018.home                   0          0          0
    1   macbookproeric2018.home                   0          1         -1
    2   macbookproeric2018.home                   0          2         -1
    3   macbookproeric2018.home                   0          3         -1
    4   macbookproeric2018.home                   0          4         -1
    5   macbookproeric2018.home                   0          5         -1
    6   macbookproeric2018.home                   0          6         -1
    7   macbookproeric2018.home                   0          7         -1
    8   macbookproeric2018.home                   0          8         -1
    9   macbookproeric2018.home                   0          9         -1
 ==============================================================================


May use up to 17578MB of RAM as shared memory on node 0

 *******************************************************************************
 *                                                                             *
 *  --------------------------------                                           *
 *   Amsterdam Modeling Suite (AMS)              2024.102                      *
 *  --------------------------------                                           *
 *                                               r122055 2024-06-07            *
 *                                                                             *
 *                                                                             *
 *                              =================                              *
 *                              |               |                              *
 *                              |     A M S     |                              *
 *                              |               |                              *
 *                              =================                              *
 *                                                                             *
 *                                                                             *
 *   Online information and documentation:  https://www.scm.com/support/       *
 *   E-mail:  support@scm.com   info@scm.com                                   *
 *                                                                             *
 *   Scientific publications using AMS results must be properly referenced     *
 *   See the User Manuals (or the web site) for recommended citations          *
 *   The terms and conditions of the End User License Agreement apply to       *
 *   the use of AMS, https://www.scm.com/license-terms/                        *
 *                                                                             *
 **********************  x86_64_darwin_intel / openmpi  ************************
 
 Licensed to: Prof. Eric HENON / Institut de Chimie Moléculaire de Reims / Reims / FRANCE 2024-07-19 18:58:06
 SCM User ID: u27163
  
 AMS 2024.102  RunTime: Aug16-2024 10:51:50  ShM Nodes: 1  Procs: 10

 AMS jobname: ams
 AMS jobid  : 1884252242

 Start   directory: /Users/henon1/0testJobs/2_ChemistrySofts/4_ADF/2_LIN/tmp.henon1.3700.0.noindex/
 Results directory: /Users/henon1/0testJobs/2_ChemistrySofts/4_ADF/2_LIN/lin.results/
 Scratch directory: /tmp/amstmp_ams_kid0.1884252242/


 Communication costs MPI_COMM_WORLD:      1.003 usec per message,   0.0117 usec per 8-byte item
 Communication costs for intra-node:      0.957 usec per message,   0.0131 usec per 8-byte item

 RNG seed: -1986354458 1930951745 -620648557 353013775 252111599 -1483336497 244022263 -27118202



                     *************************************************************************
                     *  ADF 2024.102  RunTime: Aug16-2024 10:51:51  ShM Nodes: 1  Procs: 10  *
                     *************************************************************************
  

       ***************************
       *  GEOMETRY OPTIMIZATION  *
       ***************************

Optimization Method                    Quasi Newton
Optimization Coordinates               Delocalized Coordinates
Optimize lattice                       F
 
 ------------------------------------------------------
 Convergence criteria (Hartree,Angstrom)
 ------------------------------------------------------
 Maximum gradient               0.001000000000
 Maximum rms gradient           0.000666666667
 Maximum step allowed           0.010000000000
 Maximum rms step allowed       0.006666666667
 Maximum energy change allowe   0.000030000000
 Maximum stress energy allowe   0.000500000000
 
Initial model Hessian                  Automatic Hessian
 
------------------------------------
Quasi-Newton Optimizer Parameters
------------------------------------
Hessian Update Method                  BFGS
Maximum number of steps                  250
First GDIIS cycle                          0
Maximum GDIIS vectors                      0
Trust radius (bohr)                        0.200000
Trust radius varies                        T
Constraints converged at all steps         T
Use projector                              T
 
 Rigid motions settings for: old optimizer
 Atomic rotations (x,y,z):     T T T
 Atomic translations (x,y,z):  T T T
 Tolerance:                   1.000000000000000E-006
 
--------
Geometry
--------
Formula: CHN
Atoms
  Index Symbol   x (angstrom)   y (angstrom)   z (angstrom)
      1      C     0.00000000     0.00000000     0.53221400
      2      N     0.00000000     0.00000000    -0.68778600
      3      H     0.00000000     0.00000000     1.62121300
 
Total System Charge             0.00000
Bonding info available!
 
 
----------------
ADF Engine Input
----------------
 
 

 Title: *** (NO TITLE) ***

Number of symmetry operators: 26
Schoenflies symbol:           C(LIN)
 Using automatic Hessian for delocalized coordinates.
 *** GO1_GOStep1 ***

 Energy gradients wrt nuclear displacements
 ==========================================

     Atom      Cartesian (a.u./angstrom)
                 X         Y         Z
 ----------------------------------------
     1 C     0.000000  0.000000  0.182612
     2 N     0.000000  0.000000 -0.193268
     3 H     0.000000  0.000000  0.010656
 ----------------------------------------
 Mulliken charges used for AMS results%charges...
 
----------------------------------------------------------------------
Geometry Convergence after Step   1       (Hartree/Angstrom,Angstrom)
----------------------------------------------------------------------
current energy                               -0.70930677 Hartree
energy change                      -0.70930677     0.00003000    F
constrained gradient max            0.19326774     0.00100000    F
constrained gradient rms            0.08870247     0.00066667    F
gradient max                        0.19326774
gradient rms                        0.08870247
cart. step max                      0.06122324     0.01000000    F
cart. step rms                      0.02503376     0.00666667    F
 
 
--------
Geometry
--------
Formula: CHN
Atoms
  Index Symbol   x (angstrom)   y (angstrom)   z (angstrom)
      1      C     0.00000000     0.00000000     0.50458351
      2      N     0.00000000     0.00000000    -0.62656276
      3      H     0.00000000     0.00000000     1.58762025
 
Total System Charge             0.00000
Bonding info available!
 
 *** GO1_GOStep2 ***

 Energy gradients wrt nuclear displacements
 ==========================================

     Atom      Cartesian (a.u./angstrom)
                 X         Y         Z
 ----------------------------------------
     1 C     0.000000  0.000000 -0.154110
     2 N     0.000000  0.000000  0.144783
     3 H     0.000000  0.000000  0.009327
 ----------------------------------------
 Mulliken charges used for AMS results%charges...

 dE(predicted):    -0.86180E-02, dE(actual):    -0.37357E-02, Trust radius:    0.200000, all in a.u.
 
----------------------------------------------------------------------
Geometry Convergence after Step   2       (Hartree/Angstrom,Angstrom)
----------------------------------------------------------------------
current energy                               -0.71304245 Hartree
energy change                      -0.00373567     0.00003000    F
constrained gradient max            0.15410983     0.00100000    F
constrained gradient rms            0.07055243     0.00066667    F
gradient max                        0.15410983
gradient rms                        0.07055243
cart. step max                      0.02426379     0.01000000    F
cart. step rms                      0.00993108     0.00666667    F
 
 
--------
Geometry
--------
Formula: CHN
Atoms
  Index Symbol   x (angstrom)   y (angstrom)   z (angstrom)
      1      C     0.00000000     0.00000000     0.51822194
      2      N     0.00000000     0.00000000    -0.65082656
      3      H     0.00000000     0.00000000     1.59824562
 
Total System Charge             0.00000
Bonding info available!
 
 *** GO1_GOStep3 ***

 Energy gradients wrt nuclear displacements
 ==========================================

     Atom      Cartesian (a.u./angstrom)
                 X         Y         Z
 ----------------------------------------
     1 C     0.000000  0.000000  0.022332
     2 N     0.000000  0.000000 -0.024892
     3 H     0.000000  0.000000  0.002560
 ----------------------------------------
 Mulliken charges used for AMS results%charges...

 dE(predicted):    -0.27578E-02, dE(actual):    -0.21443E-02, Trust radius:    0.200000, all in a.u.
 
----------------------------------------------------------------------
Geometry Convergence after Step   3       (Hartree/Angstrom,Angstrom)
----------------------------------------------------------------------
current energy                               -0.71518673 Hartree
energy change                      -0.00214429     0.00003000    F
constrained gradient max            0.02489214     0.00100000    F
constrained gradient rms            0.01117982     0.00066667    F
gradient max                        0.02489214
gradient rms                        0.01117982
cart. step max                      0.00423935     0.01000000    T
cart. step rms                      0.00176950     0.00666667    T
 
 
--------
Geometry
--------
Formula: CHN
Atoms
  Index Symbol   x (angstrom)   y (angstrom)   z (angstrom)
      1      C     0.00000000     0.00000000     0.51688394
      2      N     0.00000000     0.00000000    -0.64658721
      3      H     0.00000000     0.00000000     1.59534427
 
Total System Charge             0.00000
Bonding info available!
 
 *** GO1_GOStep4 ***

 Energy gradients wrt nuclear displacements
 ==========================================

     Atom      Cartesian (a.u./angstrom)
                 X         Y         Z
 ----------------------------------------
     1 C     0.000000  0.000000  0.001793
     2 N     0.000000  0.000000 -0.002660
     3 H     0.000000  0.000000  0.000867
 ----------------------------------------
 Mulliken charges used for AMS results%charges...

 dE(predicted):    -0.71417E-04, dE(actual):    -0.81382E-04, Trust radius:    0.200000, all in a.u.
 
----------------------------------------------------------------------
Geometry Convergence after Step   4       (Hartree/Angstrom,Angstrom)
----------------------------------------------------------------------
current energy                               -0.71526811 Hartree
energy change                      -0.00008138     0.00003000    F
constrained gradient max            0.00265967     0.00100000    F
constrained gradient rms            0.00110755     0.00066667    F
gradient max                        0.00265967
gradient rms                        0.00110755
cart. step max                      0.00064611     0.01000000    T
cart. step rms                      0.00029587     0.00666667    T
 
 
--------
Geometry
--------
Formula: CHN
Atoms
  Index Symbol   x (angstrom)   y (angstrom)   z (angstrom)
      1      C     0.00000000     0.00000000     0.51684521
      2      N     0.00000000     0.00000000    -0.64594110
      3      H     0.00000000     0.00000000     1.59473690
 
Total System Charge             0.00000
Bonding info available!
 
 *** GO1_GOStep5 ***

 Energy gradients wrt nuclear displacements
 ==========================================

     Atom      Cartesian (a.u./angstrom)
                 X         Y         Z
 ----------------------------------------
     1 C     0.000000  0.000000 -0.000250
     2 N     0.000000  0.000000  0.000101
     3 H     0.000000  0.000000  0.000148
 ----------------------------------------
 Mulliken charges used for AMS results%charges...

 dE(predicted):    -0.11571E-05, dE(actual):    -0.14194E-05, Trust radius:    0.200000, all in a.u.
 
---------------------------------------------------------
Geometry Convergence after Step   5       ** CONVERGED **
---------------------------------------------------------
current energy                               -0.71526953 Hartree
energy change                      -0.00000142     0.00003000    T
constrained gradient max            0.00024957     0.00100000    T
constrained gradient rms            0.00010248     0.00066667    T
gradient max                        0.00024957
gradient rms                        0.00010248
cart. step max                      0.00005203     0.01000000    T
cart. step rms                      0.00002162     0.00666667    T
 
Geometry optimization converged

Optimized geometry:
 
--------
Geometry
--------
Formula: CHN
Atoms
  Index Symbol   x (angstrom)   y (angstrom)   z (angstrom)
      1      C     0.00000000     0.00000000     0.51684521
      2      N     0.00000000     0.00000000    -0.64594110
      3      H     0.00000000     0.00000000     1.59473690
 
Total System Charge             0.00000
Bonding info available!
 
Performing a single point calculation on the final geometry ...

 *** adf ***



 ===========================
 A T T A C H E D   F I L E S
 ===========================
  
 Restart/tmp/amstmp_ams_kid0.1884252242/GO1_GOStep5.rkf*** GO1_GOStep5 ***



 ===============================
 M O D E L   P A R A M E T E R S
 ===============================
  
 DENSITY FUNCTIONAL POTENTIAL (scf)
    LDA:                               VWN                                      
    Gradient Corrections:              ---                                      

 SPIN  (restricted / unrestr.)
    Molecule:                          Restricted                               
    Fragments:                         Restricted                               

 OTHER ASPECTS
    Relativistic Corrections:          scalar (ZORA,MAPA)                       

    Nuclear Charge Density Model:      Point Charge Nuclei                      
    Core Treatment:                    Frozen Orbital(s)                        

    Hyperfine or Zeeman Interaction:   ---                                      



 ===============
 G E O M E T R Y  ***  Linear Molecule  ***
 ===============
  

 ATOMS
 =====                            X Y Z                    CHARGE
                                (Angstrom)             Nucl     +Core       At.Mass
                       --------------------------    ----------------       -------
    1  C               0.0000    0.0000    0.5168      6.00      4.00       12.0000
    2  N               0.0000    0.0000   -0.6459      7.00      5.00       14.0031
    3  H               0.0000    0.0000    1.5947      1.00      1.00        1.0078


 FRAGMENTS
 =========                                     Atoms in this Fragment     Cart. coord.s (Angstrom)
                                               -------------------------------------------------------
    1  C                                                 1  C            0.0000    0.0000    0.5168
    2  N                                                 2  N            0.0000    0.0000   -0.6459
    3  H                                                 3  H            0.0000    0.0000    1.5947


 Interatomic Distance Matrix (Angstrom)
 --------------------------------------

   1)     0.000
   2)     1.163   0.000
   3)     1.078   2.241   0.000

 Min. Distance =    1.0779
 Max. Distance =    2.2407



 =====================================
 S Y M M E T R Y ,   E L E C T R O N S
 =====================================
  
 Symmetry: C(LIN)

 Irreducible Representations, including subspecies
 -------------------------------------------------
 SIGMA
 PI:x  PI:y
 DELTA:x2-y2  DELTA:xy
 PHI:x3-3xy2  PHI:3x2y-y3


 Configuration of Valence Electrons
 ==================================
 ( determined in the SCF procedure )

 Total:   10

 Net Charge: 0 (Nuclei minus Electrons)

 Aufbau principle for MO occupations will be applied through SCF cycle no.     150
 Thereafter, the program will assign electrons to MOs that are spatially
 similar to the occupied MOs in a "reference" cycle ("KeepOrbitals").
 The reference cycle is always the PREVIOUS cycle: it will evolve with
 the SCF procedure.
1
 ***************************************************************************************************



                                      ****************************************
                                      *  B U I L D : (Fragments, Functions)  *
                                      ****************************************
  



 =======
 S F O s  ***  (Symmetrized Fragment Orbitals)  ***
 =======
  
 SFOs are linear combinations of (valence) Fragment Orbitals (FOs), such that the SFOs transform as the
 irreducible representations of the (molecular) symmetry group. Each SFO is therefore characterized by
 an irrep of the molecule and by a few (or only one) generating FOs.
 The SFOs constitute a symmetry-adapted basis for the Fock matrix. The MO eigenvector coefficients in
 this basis provide a direct interpretation of the MOs in terms of Frontier Orbital Theory.

 The SFOs are combined with auxiliary Core Functions (CFs) to ensure orthogonalization on the (frozen)
 Core Orbitals (COs). The Core-orthogonalized SFOs (CSFOs) constitute the true Fock basis.

 The FOs, and hence also the (C)SFOs are combinations of the elementary basis functions (BAS). The basis
 functions that participate in the description of the SFOs depend on the irrep. The indices of the
 involved functions are printed below for each irrep.
 (The complete list of primitive basis functions is printed in another section)

 Total nr. of (C)SFOs (summation over all irreps) :    18

 NOTE: a (C)SFO that is defined as a combination of more than one FO is usually NOT normalized.



                                       === SIGMA ===
 Nr. of SFOs :   10
 Cartesian basis functions that participate in this irrep (total number =    12) :
      1    10     2     3     6     9    11    12    15    18
     19    20

    SFO  (index         Fragment          Generating    Expansion in Fragment Orbitals
  indx  incl.CFs)   Occup   Orb.Energy   FragmentType  Coeff.   Orbital     on Fragment
 --------------------------------------------------------------------------------------
     1       3      2.000      -0.508 au  C             1.00      1 S               1
                        (     -13.825 eV)
     2       4       --         0.468 au  C             1.00      2 S               1
                        (      12.744 eV)
     3       5      0.667      -0.206 au  C             1.00      1 P:z             1
                        (      -5.593 eV)
     4       6       --         0.432 au  C             1.00      2 P:z             1
                        (      11.759 eV)
     5       7      2.000      -0.683 au  N             1.00      1 S               2
                        (     -18.580 eV)
     6       8       --         0.688 au  N             1.00      2 S               2
                        (      18.727 eV)
     7       9      1.000      -0.271 au  N             1.00      1 P:z             2
                        (      -7.381 eV)
     8      10       --         0.571 au  N             1.00      2 P:z             2
                        (      15.548 eV)
     9      11      1.000      -0.234 au  H             1.00      1 S               3
                        (      -6.379 eV)
    10      12       --         0.403 au  H             1.00      2 S               3
                        (      10.963 eV)



                                       === PI:x ===
 Nr. of SFOs :    4
 Cartesian basis functions that participate in this irrep (total number =     4) :
      4     7    13    16

    SFO  (index         Fragment          Generating    Expansion in Fragment Orbitals
  indx  incl.CFs)   Occup   Orb.Energy   FragmentType  Coeff.   Orbital     on Fragment
 --------------------------------------------------------------------------------------
     1       1      0.667      -0.206 au  C             1.00      1 P:x             1
                        (      -5.593 eV)
     2       2       --         0.432 au  C             1.00      2 P:x             1
                        (      11.759 eV)
     3       3      1.000      -0.271 au  N             1.00      1 P:x             2
                        (      -7.381 eV)
     4       4       --         0.571 au  N             1.00      2 P:x             2
                        (      15.548 eV)



                                       === PI:y ===
 Nr. of SFOs :    4
 Cartesian basis functions that participate in this irrep (total number =     4) :
      5     8    14    17

    SFO  (index         Fragment          Generating    Expansion in Fragment Orbitals
  indx  incl.CFs)   Occup   Orb.Energy   FragmentType  Coeff.   Orbital     on Fragment
 --------------------------------------------------------------------------------------
     1       1      0.667      -0.206 au  C             1.00      1 P:y             1
                        (      -5.593 eV)
     2       2       --         0.432 au  C             1.00      2 P:y             1
                        (      11.759 eV)
     3       3      1.000      -0.271 au  N             1.00      1 P:y             2
                        (      -7.381 eV)
     4       4       --         0.571 au  N             1.00      2 P:y             2
                        (      15.548 eV)



 ================================
 (Slater-type)  F U N C T I O N S  ***  (Basis and Fit)  ***
 ================================
  

 Atom Type    1  (C)
 ==============

 Valence Basis Sets:   5
 -----------------------
   1 S    5.400000
   2 S    1.240000
   2 S    1.980000
   2 P    0.960000
   2 P    2.200000

 Frozen Core Shells
 ------------------
    S:  1

 Atom Type    2  (N)
 ==============

 Valence Basis Sets:   5
 -----------------------
   1 S    6.380000
   2 S    1.460000
   2 S    2.380000
   2 P    1.120000
   2 P    2.580000

 Frozen Core Shells
 ------------------
    S:  1

 Atom Type    3  (H)
 ==============

 Valence Basis Sets:   2
 -----------------------
   1 S    0.760000
   1 S    1.280000


 BAS: List of all Elementary Cartesian Basis Functions
 =====================================================

 The numbering in the list below (to the right of the function characteristics) is referred
 to in print-outs of MO eigenvectors and Mulliken populations in the BAS representation
 (as contrasted to the SFO representation).

 Notes:
 1. The functions are characterized by a polynomial prefactor (powers of x,y,z and r) and
    an exponential decay factor alpha.
 2. Since the basis sets are specific for an atom TYPE, the individual functions occur on
    all atoms of that type.
 3. The word 'Core' in the left margin signals that it is a Core Function (CF) : not a
    degree of freedom in the valence set, but only used to ensure orthogonalization of
    the other valence basis functions on the frozen Core Orbitals.


 (power of) X  Y  Z  R     Alpha  on Atom
            ==========     =====     ==========

 C                                    1
                                  ---------------------------------------------------------------------------
    Core    0  0  0  0     5.400      1
            0  0  0  1     1.240      2
            0  0  0  1     1.980      3
            1  0  0  0     0.960      4
            0  1  0  0     0.960      5
            0  0  1  0     0.960      6
            1  0  0  0     2.200      7
            0  1  0  0     2.200      8
            0  0  1  0     2.200      9

 N                                    2
                                  ---------------------------------------------------------------------------
    Core    0  0  0  0     6.380     10
            0  0  0  1     1.460     11
            0  0  0  1     2.380     12
            1  0  0  0     1.120     13
            0  1  0  0     1.120     14
            0  0  1  0     1.120     15
            1  0  0  0     2.580     16
            0  1  0  0     2.580     17
            0  0  1  0     2.580     18

 H                                    3
                                  ---------------------------------------------------------------------------
            0  0  0  0     0.760     19
            0  0  0  0     1.280     20

 Total number of charge fitting functions (nprimf)       214
 Total number of Cartesian basis functions (naos)         20
 Total number of Cartesian core functions  (ncos)          2

1
 ***************************************************************************************************



                                              ***********************
                                              *  T E C H N I C A L  *
                                              ***********************
  



 =============================================================
 P A R A L L E L I Z A T I O N  and  V E C T O R I Z A T I O N
 =============================================================
  
 Nr of parallel processes:                               10
 Maximum vector length in NumInt loops:                 128



 =====================
 S C F   U P D A T E S
 =====================
  
 Max. nr. of cycles:                               300
 Convergence criterion:                              0.0000010000
   secondary criterion:                              0.0010000000

 Mix parameter (when DIIS does not apply):           0.2000000000
 Mixed ADIIS+SDIIS will be used                  
    Max number of expansion vectors:                10
    Pure ADIIS when Max([F,P]) is above              0.1000000000
    Pure SDIIS when Max([F,P]) is below              0.0010000000
 Automatic ElectronSmearing (in case of problematic SCF convergence) disabled



 =================
 P R E C I S I O N  ***  (General: NumInt, NeglectFunctionTails, ...)  ***
 =================
  

 NumInt:           Target precision:                 4.0000000000
 -------           Initial precision:                4.0000000000
                   Min. precision (optimization):    4.0000000000

 Neglect Functions:          Basis functions:        0.1000000000E-05
 ------------------          Fit functions:          0.1000000000E-05



 ===========================
 L I N E A R   S C A L I N G
 ===========================
  

 Cut-off radii density fit:                        0.1000000000E-07
 Overlap cut-off criterion AO matrix elements:     0.1000000000E-05
 Cut-offs for Coulomb potential and fitted density:0.1000000000E-07
 Cut-off criterion for Coulomb multipole terms:    0.1000000000E-07
 Progressive Convergence parameter:                 0.000000000    

 Number of elements of the density matrix on this node (used, total):        45       210



 ===========================================
 Numerical Integration : Fuzzy Cells (Becke)
 ===========================================
  
 Becke grid quality: NORMAL         
  
 Lebedev angular grid order:             min:  11 max:  23
 Nr. of radial points:                   min:  46 max:  49

 Total nr. of points:      18603
 Nr. of blocks:              146
 Block length:               128
 Nr. of dummy points:         85


 Test of Precision of the Numerical Integration Grid
 ===================================================

 Integral of the Total Core Density:                   4.00000892624446
 Relative Error:                                       2.232E-06



 ========================
 Density Fitting (zlmFit)
 ========================
  
 ZlmFit Fit Quality: NORMAL         
  
 Max L-expansion:                        min:   4 max:   5
 Nr. of radial interpolation points:     min:  36 max:  45



 =====
 S C F  ***  ScaSCF  ***
 =====
  
 Initial density matrix is taken from previous geometry

 CYCLE    1
  ***********************************************************
  ** : orbital data taken from :/tmp/amstmp_ams_kid0.1884252242/GO1_GOStep5.rkf
  ***********************************************************
 SCF Error: norm([F,P])=      0.000000000274, max([F,P])=      0.000000000153
 orbitals (Q,E):
 ---------------
 SIGMA :1...10       ( 2.00    -0.8953)  ( 2.00    -0.5701)  ( 2.00    -0.3440)  ( 0.00     0.0165)
                     ( 0.00     0.1543)  ( 0.00     0.4493)  ( 0.00     0.6478)  ( 0.00     0.9083)
                     ( 0.00     1.0574)  ( 0.00     1.9592)
 PI :1...4           ( 4.00    -0.3610)  ( 0.00    -0.0551)  ( 0.00     0.4211)  ( 0.00     0.7583)

 CYCLE    2
   MIX coefficients:  0.8000  0.2000
 SCF Error: norm([F,P])=      0.000000001069, max([F,P])=      0.000000000561
 orbitals (Q,E):
 ---------------
 SIGMA :1...4        ( 2.00    -0.8953)  ( 2.00    -0.5701)  ( 2.00    -0.3440)  ( 0.00     0.0165)
 PI :1...2           ( 4.00    -0.3610)  ( 0.00    -0.0551)

 SCF CONVERGED

 CYCLE    3
1
 ***************************************************************************************************



                                                *******************
                                                *  R E S U L T S  *
                                                *******************
  
 *** Using FIT density in Focky
  SDIIS (wt  0.000): -0.0517  1.0517
 A-DIIS (wt  1.000):  0.0000  1.0000
  DIIS coefficients:  0.0000  1.0000
 SCF Error: norm([F,P])=      0.000000000053, max([F,P])=      0.000000000029

 Scaled ZORA Orbital Energies, per Irrep and Spin:
 =================================================
                        Occup              E (au)              E (eV)       Diff (eV) with prev. cycle
                        -----      --------------------        ------       --------------------------
 SIGMA
               1        2.000     -0.89529944625853E+00       -24.362              -2.64E-10
               2        2.000     -0.57013841720989E+00       -15.514               2.92E-10
               3        2.000     -0.34395369384937E+00        -9.359              -5.20E-10
               4        0.000      0.16461250799084E-01         0.448
               5        0.000      0.15434262417683E+00         4.200
               6        0.000      0.44925340129486E+00        12.225
               7        0.000      0.64784853663007E+00        17.629
               8        0.000      0.90832259942073E+00        24.717
               9        0.000      0.10573717800161E+01        28.773
              10        0.000      0.19592139993198E+01        53.313
 PI
               1        4.000     -0.36095895635304E+00        -9.822              -1.80E-10
               2        0.000     -0.55120869176564E-01        -1.500
               3        0.000      0.42109306447905E+00        11.459
               4        0.000      0.75826423079387E+00        20.633
  
 HOMO :        3 SIGMA            -0.34395369384937E+00
 LUMO :        2 PI               -0.55120869176564E-01
  


 Orbital Energies, all Irreps
 ========================================

 Irrep        no.  (spin)   Occup              E (au)                E (eV)
 ---------------------------------------------------------------------------
 SIGMA         1             2.00       -0.89529944625853E+00       -24.3623
 SIGMA         2             2.00       -0.57013841720989E+00       -15.5143
 PI            1             4.00       -0.36095895635304E+00        -9.8222
 SIGMA         3             2.00       -0.34395369384937E+00        -9.3595
 PI            2             0.00       -0.55120869176564E-01        -1.4999
 SIGMA         4             0.00        0.16461250799084E-01         0.4479
 SIGMA         5             0.00        0.15434262417683E+00         4.1999
 PI            3             0.00        0.42109306447905E+00        11.4585
 SIGMA         6             0.00        0.44925340129486E+00        12.2248
 SIGMA         7             0.00        0.64784853663007E+00        17.6289
 PI            4             0.00        0.75826423079387E+00        20.6334
 SIGMA         8             0.00        0.90832259942073E+00        24.7167
 SIGMA         9             0.00        0.10573717800161E+01        28.7726
 SIGMA        10             0.00        0.19592139993198E+01        53.3129


 Scaled ZORA Orbital Energies of the Core Orbitals:
 ==================================================

 (Note that the atoms are grouped by atomtype, see the labels, and may hence NOT be in input order)

 AtomType  Orbital  Atom                   E (au)                        E (eV)
 --------  -------  ----           --------------------        ----------------
 C           1S        1          -0.98678128837076E+01                -268.517
 N           1S        2          -0.13938015632033E+02                -379.273


 Fit test: (difference of exact and fit density, squared integrated, result summed over spins)
         Sum-of-Fragments:                             0.00000000000564
         Orthogonalized Fragments:                     0.00009689917241
         SCF:                                          0.00042978103445



 ==========================
 Electron Density at Nuclei
 ==========================
  
 The electron density is calculated at points on a small sphere around the center of a nucleus.
 The printed electron density is the average electron density on these points.
 The radius of the sphere is the printed approximate finite nuclear radius.
 Note: ZORA-4 density is used, which includes small component density

         Atom        Nuclear Radius (Angstrom)             Electron Density (a.u.)
         ----        -------------------------             -----------------------
     1)   C                 0.0000320678                              127.77434
     2)   N                 0.0000333706                              208.72541
     3)   H                 0.0000181514                                0.45333



 =======================================
 M U L L I K E N   P O P U L A T I O N S
 =======================================
  
 The survey below gives for each atom:
 a) the total charge (Z minus electrons)
 b) the net spin polarization (nr of electrons spin-A minus spin-B)
 c) for each spin the atomic electron valence density (integrated) per L-value.

 Atom              Charge    Spin density          S         P         D         F
 ----              ------    ------------       ------    ------    ------    ------
 1 C               0.0097                       1.2415    2.7488    0.0000    0.0000
 2 N              -0.3689                       2.0299    3.3390    0.0000    0.0000
 3 H               0.3592                       0.6408    0.0000    0.0000    0.0000

 Populations of individual BAS functions
 ----------------------------------------
 1 C            0.0006  0.3874  0.8536  0.4338  0.4338  0.0637  0.5163  0.5163  0.7849
 2 N            0.0005  1.1037  0.9257  0.4761  0.4761  0.3776  0.5739  0.5739  0.8615
 3 H           -0.2804  0.9212

 Gross Charges per Atom (Z minus electrons)
 ==========================================
             0.0097   -0.3689    0.3592
 Net Total: -0.00000000


 Atom-Atom Population Matrix (off-diagonal elements not doubled)
 ===============================================================

     1 :     3.1464
     2 :     0.5402    4.8576
     3 :     0.3037   -0.0289    0.3661



 =================================================
 H I R S H F E L D   C H A R G E   A N A L Y S I S
 =================================================
  
 For each fragment: the (numerical) integral of rho(scf) * rho(fragment)/rho(sum-of-fragments)
 (nuclear charges are included, electrons are counted negative)

 The fragments and their ordering are defined in the early G E O M E T R Y output section.
 If you use single-atom fragments, this usually implies that all atoms of the same
 chemical type are grouped together. This may not be the order in which you listed them
 in the input file!

    1  C                         0.0348
    2  N                        -0.1681
    3  H                         0.1333

 Sum of these charges (accuracy NumInt/Tails) =          -0.00001290



 =============================
 V O R O N O I   C H A R G E S
 =============================
  
 For each atom: the (numerical) integral of the total electronic charge density in its Voronoi cell,
 i.e. the region of space that is closer to that atom than to any other atom.
 (cf. Wigner-Seitz cells in crystals)

 Within the Voronoi cell the subintegrals over the atomic sphere and the remaining part are evaluated
 separately to give the numbers of electrons (negative charge) in these regions.
 The net total charge in the cell (including the nuclear charge) is also given.

 Values are provided for
    a) the Initial (sum-of-fragments) density
    b) the Orthogonalized-Fragments density
    c) the SCF density
    d) the Voronoi Deformation Density (VDD): the difference SCF-Initial for the complete atomic cell


  Atom                Initial                    OrthFrag                   SCF
             Sphere RestCell NetTotal   Sphere RestCell NetTotal   Sphere RestCell NetTotal      VDD
 -----       ------------------------   ------------------------   ------------------------    -----
    1 C      -2.139   -3.300    0.561   -2.235   -3.274    0.491   -2.179   -3.285    0.535   -0.026
    2 N      -2.703   -4.363   -0.066   -2.906   -4.206   -0.112   -2.736   -4.477   -0.213   -0.146
    3 H      -0.072   -1.423   -0.495   -0.090   -1.290   -0.379   -0.098   -1.224   -0.323    0.172
 ---------------------------------------------------------------------------------------------------
 Total NetCharge:              -0.000                     -0.000                     -0.000    0.000
 (accuracy NumInt/Tails)

 Remark: the 'NetTotal' Voronoi charges often do not match the Mulliken and/or Hirshfeld charges very
 well. This is caused by the fact that chemically different atoms are not treated in accordance with
 their relative sizes. (Voronoi cells are defined by boundary planes halfway between the atoms.)
 However, the CHANGES in charge, comparing 'Initial' to 'SCF' for instance, do give a fair indication
 of the flow of charge caused by the relaxation from sum-of-fragments to self-consistency.

 Warning: the absolute accuracy of the VDD charges obtained using the Fuzzy Cells (Becke) integration
 scheme is much poorer than the one obtained with an 'equivalent' Voronoi integration grid. 



 =================================================================
 M U L T I P O L E   D E R I V E D   C H A R G E   A N A L Y S I S
 =================================================================

 This charge analysis uses the atomic multipoles (obtained from the fitted density) up to some level X,
 and reconstructs these multipoles exactly (up to level X) by distributing charges over all atoms.
 This is achieved by using Lagrange multipliers and a weight function to keep the multipoles local.

 Dummy atoms can be included (by setting INCDUM in MDC-block to 1) to obtain a fractional charge.
 This is generally useful and necessary only for small symmetrical molecules, when there are not
 enough degrees of freedom to reconstruct the multipoles.

 Since the atomic multipoles are reconstructed up to level X,
 the molecular multipoles are represented also up to level X.
 The recommended level is to reconstruct up to quadrupole : -> MDC-q charges.

 See: M. Swart, P.Th. van Duijnen, J.G. Snijders, J.Comput.Chem., (2001), p. 79-88.

 ------------------------------------------------------------- 
 Atomic electronic multipole moments from SCF equations (a.u.)
 ------------------------------------------------------------- 

   atom        charge        dip-x     dip-y     dip-z      quad-xx   quad-xy   quad-xz   quad-yy   quad-yz   quad-zz
 --------------------------------------------------------------------------------------------------------------------
    1 C      0.126524     0.000000  0.000000  0.044136    -0.630002  0.000000  0.000000 -0.630002  0.000000  1.260003
    2 N     -0.190462     0.000000 -0.000000  0.592662    -0.338821  0.000000  0.000000 -0.338821  0.000000  0.677643
    3 H      0.063938     0.000000 -0.000000  0.052764    -0.131073 -0.000000  0.000000 -0.131073  0.000000  0.262145

 --------------------------------------- 
 Multipole derived atomic charges (a.u.)
 --------------------------------------- 

 The MDC-m charges are just the Monopole terms in the multipole expansion, while for the MDC-d charges
 also the Dipoles are reconstructed. The usually preferred charges are the MDC-q charges.
 These reconstruct the Monopoles, Dipoles and Quadrupoles (both atomic AND molecular).

        Atom    Level:     MDC-m        MDC-d        MDC-q
 ---------------------------------------------------------
     1     C            0.126524     0.310191     0.144221
     2     N           -0.190462    -0.441669    -0.361828
     3     H            0.063938     0.131478     0.217607

 ------------------------------------------------ 
 Average absolute deviations in atomic multipoles
 ------------------------------------------------ 

 Stated here are the average differences between the atomic multipoles
 and the reconstructed atomic multipoles (from the distributed charges).
 If these values are not zero, this means there are not enough degrees of freedom,
 to be able to reconstruct the atomic multipoles. (This usually happens only
 for small and/or highly symmetric molecules). If this is the case, one could add
 dummy atoms as extra point charges (and setting INCDUM in MDC-block to 1).

 Level:                                 MDC-d        MDC-q
 ---------------------------------------------------------
 Charge   (a.u.)                       0.0000       0.0000
 Dipole   (Debye)                      0.0000       0.0000
 Quad.    (a.u.)                       0.2735       0.0000

 --------------------------------------- 
 Represented molecular multipole moments
 --------------------------------------- 

 Given here are the Molecular multipole moments from the atomic charges, and from the Fit Density.
 Note that the atomic charges represent the latter, NOT the ones from the Exact density.

            Q (a.u.)             Dipole moment (Debye)                                          Quadrupole moment (a.u.)
                                 x         y         z              xx        xy        xz        yy        yz        zz
------------------------------------------------------------------------------------------------------------------------
MDC-m        -0.0000        0.0000    0.0000    1.3948         -0.2088    0.0000    0.0000   -0.2088    0.0000    0.4176
MDC-d        -0.0000        0.0000    0.0000    3.1475         -0.4159    0.0000    0.0000   -0.4159    0.0000    0.8319
MDC-q         0.0000        0.0000    0.0000    3.1475         -0.7874    0.0000    0.0000   -0.7874    0.0000    1.5747
 
Fit.Dens.    -0.0000        0.0000   -0.0000    3.1475         -0.7874   -0.0000   -0.0000   -0.7874    0.0000    1.5747



 =============
 Dipole Moment  ***  (Debye)  ***
 =============
  
 Vector   :         0.00000000      0.00000000      3.14860472
 Magnitude:         3.14860472

 This molecular dipole moment is calculated with analytic integration



 =========================================
 Quadrupole Moment (Buckingham convention)  ***  (a.u.)  ***
 =========================================
  
      quad-xx        quad-xy        quad-xz        quad-yy        quad-yz        quad-zz
     -0.78778141     0.00000000     0.00000000    -0.78778141     0.00000000     1.57556282

 This molecular quadrupole moment is calculated with analytic integration
1



 ===========================
 B O N D I N G   E N E R G Y  ***  (decomposition)  ***
 ===========================
  
*** IMPORTANT NOTE ***

The bond energy is computed as an energy difference between molecule and
fragments. In particular when the fragments are single atoms, they are usually
computed as SPHERICALLY SYMMETRIC and SPIN-RESTRICTED. Obviously, this usually
does NOT represent the true atomic groundstate.

To obtain the 'real' bond energy, (atomic) correction terms must be applied
for the true (multiplet) fragment ground state. See ref: E.J.Baerends,
V.Branchadell, M.Sodupe, Chem.Phys.Lett.265 (1997) 481

General theoretical background on the bond energy decomposition scheme used
here (Morokuma-Ziegler) can be found in the review paper:
F.M. Bickelhaupt and E.J. Baerends,
"Kohn-Sham Density Functional Theory: Predicting and Understanding Chemistry"
In: Rev. Comput. Chem.; Lipkowitz, K. B. and Boyd, D. B., Eds.;
Wiley-VCH: New York, 2000, Vol. 15, 1-86.

Symbols used in the Bickelhaupt-Baerends (BB) paper are given below to make
the direct connection to that paper, where detailed explanations can be found
on the meaning of the various terms.


                                                   hartree              eV         kcal/mol           kJ/mol
                                      --------------------     -----------       ----------      -----------

Pauli Repulsion
  Kinetic (Delta T^0):                   7.576376097503164        206.1637          4754.25         19891.77
  Delta V^Pauli Coulomb:                -4.031115845090024       -109.6922         -2529.56        -10583.69
  Delta V^Pauli LDA-XC:                 -0.815331818527484        -22.1863          -511.63         -2140.65
                                      --------------------     -----------       ----------      -----------
  Total Pauli Repulsion:                 2.729928433885656         74.2851          1713.06          7167.43
 (Total Pauli Repulsion =
  Delta E^Pauli in BB paper)

Steric Interaction
  Pauli Repulsion (Delta E^Pauli):       2.729928433885656         74.2851          1713.06          7167.43
  Electrostatic Interaction:            -0.471697936982422        -12.8356          -295.99         -1238.44
 (Electrostatic Interaction =
  Delta V_elstat in the BB paper)
                                      --------------------     -----------       ----------      -----------
  Total Steric Interaction:              2.258230496903234         61.4496          1417.06          5928.98
 (Total Steric Interaction =
  Delta E^0 in the BB paper)

Orbital Interactions
  SIGMA:                                -2.171340872639496        -59.0852         -1362.54         -5700.85
  PI:                                   -0.802137748507858        -21.8273          -503.35         -2106.01
                                      --------------------     -----------       ----------      -----------
  Total Orbital Interactions:           -2.973478621147356        -80.9125         -1865.89         -7806.87

Alternative Decomposition Orb.Int.
  Kinetic:                              -6.772075262965448       -184.2775         -4249.54        -17780.08
  Coulomb:                               3.600010819198727         97.9613          2259.04          9451.83
  XC:                                    0.198585822619364          5.4038           124.61           521.39
                                      --------------------     -----------       ----------      -----------
  Total Orbital Interactions:           -2.973478621147357        -80.9125         -1865.89         -7806.87

  Residu (E=Steric+OrbInt+Res):         -0.000021407842682         -0.0006            -0.01            -0.06

Total Bonding Energy:                   -0.715269532086804        -19.4635          -448.84         -1877.94


Summary of Bonding Energy (energy terms are taken from the energy decomposition above)
======================================================================================

  Electrostatic Energy:                 -0.471697936982422        -12.8356          -295.99         -1238.44
  Kinetic Energy:                        0.804300834537717         21.8861           504.71          2111.69
  Coulomb (Steric+OrbInt) Energy:       -0.431126433733978        -11.7315          -270.54         -1131.92
  XC Energy:                            -0.616745995908120        -16.7825          -387.01         -1619.27
                                      --------------------     -----------       ----------      -----------
  Total Bonding Energy:                 -0.715269532086804        -19.4635          -448.84         -1877.94


Correction terms (incorporated in energies above; only for test purposes):

1. Indication of fit-quality: 1st-order fit-correction used in the energy (hartree):  -0.0000173946
2. Electrostatic (Fit correction):   0.0000000000

Scaled ZORA energy correction, not included in bonding energy (hartree):           -0.0000033044
 NOTE: This scaled ZORA energy correction should only be used to compare two calculations
 in which the only difference in the calculation is the electron configuration.
 Then the difference in energy of this term should be added to the difference in energy of
 the two electron configurations.
 This term should not be used otherwise.
 In practice it is useful only for core excitation energy calculations.



 =========================================
 F R A G M E N T   E N E R G Y   T E R M S  ***  (summed over all fragments)  ***
 =========================================
  

The energy terms below are (parts of) the Total Energy of the fragments from which the molecule
 is built.

Exchange and Correlation
  Exchange LDA:                        -10.228484724176916       -278.3312         -6418.47        -26854.88
  Exchange GGA:                          0.000000000000000          0.0000             0.00             0.00
  Correlation LDA:                      -0.868145996665840        -23.6235          -544.77         -2279.32
  Correlation GGA:                       0.000000000000000          0.0000             0.00             0.00
                                      --------------------     -----------       ----------      -----------
  Total XC:                            -11.096630720842755       -301.9547         -6963.24        -29134.20
1



 =======================================================
 S F O   P O P U L A T I O N S ,   M O   A N A L Y S I S
 =======================================================
  
 A Mulliken population analysis is performed on (input-)selected MOs. All populations refer to SFOs.
 BAS populations may have been printed directly after the SCF part.


                                       === SIGMA ===


 SFO contributions (%) per orbital
 (multiplication by the orbital occupation yields the SFO Gross Populations)

 Orb.:        1      2      3      4      5      6      7
 occup:     2.00   2.00   2.00   0.00   0.00   0.00   0.00
 CF+SFO     ----   ----   ----   ----   ----   ----   ----
 ------
      3:   23.02  37.08   1.49  29.08  25.97  -5.59   7.56
      4:   -0.19   0.06   0.61 -16.90  19.52   2.07  17.62
      5:    7.29  29.51   1.82  -3.24  24.23  23.03   1.01
      6:    0.29  -0.49   4.00  -3.40   8.06  15.47  33.58
      7:   57.52   4.07  39.85  -0.29   0.21   3.47   1.02
      8:   -0.02  -0.27   0.33  -0.31 -30.96 -11.06   1.64
      9:   14.10  -1.01  48.75   4.04   2.52   2.56  21.06
     10:   -0.13  -0.29   0.52  -0.78  -2.77  55.37   8.83
     11:   -1.02  28.30   2.50  81.39   5.70   0.55   0.56
     12:   -0.84   3.04   0.05  10.30  47.39  14.11   7.14


 Summation over all MOs, multiplied by occupation: Total SFO Gross Populations in this Irrep
 ===========================================================================================

     0.00   -0.00    1.23    0.01    0.77    0.08    2.03    0.00    1.24    0.00    0.60    0.05


                                       === PI:x ===


 SFO contributions (%) per orbital
 (multiplication by the orbital occupation yields the SFO Gross Populations)

 Orb.:        1      2      3      4
 occup:     2.00   0.00   0.00   0.00
 CF+SFO     ----   ----   ----   ----
 ------
      1:   48.01  56.57  -0.01  -4.58
      2:   -0.51  -2.07  92.74   9.84
      3:   53.21  49.63  -1.45  -1.38
      4:   -0.72  -4.13   8.72  96.13


 Summation over all MOs, multiplied by occupation: Total SFO Gross Populations in this Irrep
 ===========================================================================================

     0.96   -0.01    1.06   -0.01


                                       === PI:y ===


 SFO contributions (%) per orbital
 (multiplication by the orbital occupation yields the SFO Gross Populations)

 Orb.:        1      2      3      4
 occup:     2.00   0.00   0.00   0.00
 CF+SFO     ----   ----   ----   ----
 ------
      1:   48.01  56.57  -0.01  -4.58
      2:   -0.51  -2.07  92.74   9.84
      3:   53.21  49.63  -1.45  -1.38
      4:   -0.72  -4.13   8.72  96.13


 Summation over all MOs, multiplied by occupation: Total SFO Gross Populations in this Irrep
 ===========================================================================================

     0.96   -0.01    1.06   -0.01



 List of selected MOs, ordered by energy, with the most significant SFO gross populations
 ========================================================================================

 Each percentage contribution in the table below corres ponds to the indicated SFO.
 In general, a SFO may be a linear combination of several Fragment Orbitals on the same,
 or on symmetry-related Fragments. Only the first 'member' of such a combination is
 specified here. A full definition of all SFOs is given in an earlier part of the output.
 The numbering of the SFOs in this table does NOT include the Core Orbitals, and starts
 from one for each symmetry representation, as in the SFO definition list earlier.

       E(eV)  Occ       MO           %     SFO (first member)   E(eV)  Occ   Fragment
 -------------------------------------------------------------------------------------

     -24.362  2.00     1 SIGMA     57.52%     1 S             -18.580  2.00     2 N
                                   23.02%     1 S             -13.825  2.00     1 C
                                   14.10%     1 P:z            -7.381  1.00     2 N
                                    7.29%     1 P:z            -5.593  0.67     1 C
                                   -1.02%     1 S              -6.379  1.00     3 H
     -15.514  2.00     2 SIGMA     37.08%     1 S             -13.825  2.00     1 C
                                   29.51%     1 P:z            -5.593  0.67     1 C
                                   28.30%     1 S              -6.379  1.00     3 H
                                    4.07%     1 S             -18.580  2.00     2 N
                                    3.04%     2 S              10.963  0.00     3 H
                                   -1.01%     1 P:z            -7.381  1.00     2 N
      -9.822  2.00     1 PI:x      53.21%     1 P:x            -7.381  1.00     2 N
                                   48.01%     1 P:x            -5.593  0.67     1 C
      -9.822  2.00     1 PI:y      53.21%     1 P:y            -7.381  1.00     2 N
                                   48.01%     1 P:y            -5.593  0.67     1 C
      -9.359  2.00     3 SIGMA     48.75%     1 P:z            -7.381  1.00     2 N
                                   39.85%     1 S             -18.580  2.00     2 N
                                    4.00%     2 P:z            11.759  0.00     1 C
                                    2.50%     1 S              -6.379  1.00     3 H
                                    1.82%     1 P:z            -5.593  0.67     1 C
                                    1.49%     1 S             -13.825  2.00     1 C
      -1.500  0.00     2 PI:x      56.57%     1 P:x            -5.593  0.67     1 C
                                   49.63%     1 P:x            -7.381  1.00     2 N
                                   -4.13%     2 P:x            15.548  0.00     2 N
                                   -2.07%     2 P:x            11.759  0.00     1 C
      -1.500  0.00     2 PI:y      56.57%     1 P:y            -5.593  0.67     1 C
                                   49.63%     1 P:y            -7.381  1.00     2 N
                                   -4.13%     2 P:y            15.548  0.00     2 N
                                   -2.07%     2 P:y            11.759  0.00     1 C
       0.448  0.00     4 SIGMA     81.39%     1 S              -6.379  1.00     3 H
                                   29.08%     1 S             -13.825  2.00     1 C
                                  -16.90%     2 S              12.744  0.00     1 C
                                   10.30%     2 S              10.963  0.00     3 H
                                    4.04%     1 P:z            -7.381  1.00     2 N
                                   -3.40%     2 P:z            11.759  0.00     1 C
                                   -3.24%     1 P:z            -5.593  0.67     1 C

 Energy gradients wrt nuclear displacements
 ==========================================

     Atom      Cartesian (a.u./angstrom)
                 X         Y         Z
 ----------------------------------------
     1 C     0.000000  0.000000 -0.000250
     2 N     0.000000  0.000000  0.000101
     3 H     0.000000  0.000000  0.000148
 ----------------------------------------



 =======================================================================
 Electrostatic potential at the Nuclei due to electrons and other nuclei
 =======================================================================
  
         Atom                  Potential
         ----                  ---------
     1)   C                  14.68859727
     2)   N                  18.31534984
     3)   H                   0.93316297

=============================================================
=== CALCULATE ANALYTICAL SECOND DERIVATIVES OF THE ENERGY ===
=============================================================


-----------------------------------------------
*** RESTART ***
*** CHECKING FOR HESSIAN ON RESTART FILE ***
@@@ WARNING: Cannot find section: Hessian                                                                                                                                                         
*** NO HESSIAN EXISTS ON RESTART FILE ***
*** HESSIAN FROM RESTART FILE IS NOT COMPLETE ***
*** FURTHER CALCULATIONS WILL BE DONE         ***
-----------------------------------------------
                  ------------------------------------------------
                  
                  This Analytical Second Derivatives Progam    
                            was written for ADF by             
                  
                                Stephen K. Wolff               
                  
                         Scientific Computing & Modelling      
                  
                                Vrije University
                              Theoretical Chemistry
                                De Boelelaan 1083
                                1081 HV Amsterdam
                                 The Netherlands
                  
                  ------------------------------------------------
                  
                                    References:                
                                    ===========                
                  
                   Attila Berces, Ross M. Dickson, Liangyou Fan
                   Heiko Jacobsen, David Swerhone, Tom Ziegler,
                   Computer Physics Communications 100 (1997) 247.
                  
                   Heiko Jacobsen, Attila Berces
                   David Swerhone, Tom Ziegler,
                   Computer Physics Communications 100 (1997) 263.
                  
                   Stephen K. Wolff
                   Int. J. Quantum Chem. 104 (2005) 645.
                  
                  ------------------------------------------------
                  
              <><><><><><><><><><><><><><><><><><><><><><><><><>
 
                 SECOND DERIVATIVES INFORMATION:
                 -------------------------------
 
                 === PRINT
 
                   EIGS,  lprint_eigbas =  F
                   U1,    lprint_u1     =  F
                   PARTS, lprint_parts  =  F
 
                 === DEBUG
 
                   ALL        =  F
                   B1         =  F
                   DENSITIES  =  F
                   FIT        =  F
                   HESSIAN    =  F
                   NUMBERS    =  F
                   SYMMETRY   =  F
                   U1         =  F
 
                 === CPKS
 
                   MAX_CPKS_ITERATIONS    =    20
                   U1_ACCURACY PARAMETER  =     5.00
                   U1 ACCURACY            =     0.0000100
 

                 Estimated peak private memory usage    100 MB per process
                                 shared memory usage     17 MB per node

              <><><><><><><><><><><><><><><><><><><><><><><><><>
 Handling            3  atoms per pass in write_denb1
 wr_gradb1   1345536.00000000        1048576000.00000     

######## LOOPING OVER NUCLEI ########

==========================
###### NUCLEUS:     1  C  
==========================

====================  solving CPKS equations  ====================

NUCLEUS  COORD.    ITERATION   ACCURACY
-------  ------    ---------   --------
    1       1          1       0.61031731D-01
    1       1          2       0.87287418D-03
    1       1          3       0.86148301D-04
    1       1          4       0.93573175D-06
*** CPKS converged.
----------------------------------------------
    1       2          1       0.61031730D-01
    1       2          2       0.87287416D-03
    1       2          3       0.86148105D-04
    1       2          4       0.85695248D-06
*** CPKS converged.
----------------------------------------------
    1       3          1       0.11736983D+00
    1       3          2       0.38769173D-01
    1       3          3       0.23716249D-02
    1       3          4       0.21361424D-03
    1       3          5       0.17414768D-04
    1       3          6       0.55613882D-06
*** CPKS converged.
----------------------------------------------

====================  end of solving CPKS equations  ====================

==========================
###### NUCLEUS:     2  N  
==========================

====================  solving CPKS equations  ====================

NUCLEUS  COORD.    ITERATION   ACCURACY
-------  ------    ---------   --------
    2       1          1       0.60719199D-01
    2       1          2       0.17753007D-02
    2       1          3       0.96423325D-04
    2       1          4       0.50479080D-06
*** CPKS converged.
----------------------------------------------
    2       2          1       0.60719199D-01
    2       2          2       0.17753008D-02
    2       2          3       0.96423219D-04
    2       2          4       0.44858501D-06
*** CPKS converged.
----------------------------------------------
    2       3          1       0.66291391D-01
    2       3          2       0.33934202D-01
    2       3          3       0.19985154D-02
    2       3          4       0.33383557D-03
    2       3          5       0.27538414D-04
    2       3          6       0.60768529D-06
*** CPKS converged.
----------------------------------------------

====================  end of solving CPKS equations  ====================

==========================
###### NUCLEUS:     3  H  
==========================

====================  solving CPKS equations  ====================

NUCLEUS  COORD.    ITERATION   ACCURACY
-------  ------    ---------   --------
    3       1          1       0.74781384D-02
    3       1          2       0.90520714D-03
    3       1          3       0.61059662D-04
    3       1          4       0.14168633D-05
*** CPKS converged.
----------------------------------------------
    3       2          1       0.74781384D-02
    3       2          2       0.90520715D-03
    3       2          3       0.61059659D-04
    3       2          4       0.14140479D-05
*** CPKS converged.
----------------------------------------------
    3       3          1       0.78307827D-01
    3       3          2       0.79795031D-02
    3       3          3       0.26673866D-02
    3       3          4       0.16901997D-03
    3       3          5       0.90180980D-05
*** CPKS converged.
----------------------------------------------

====================  end of solving CPKS equations  ====================


====================================================================
*** DONE CALCULATING ANALYTICAL SECOND DERIVATIVES OF THE ENERGY ***
====================================================================

 Mulliken charges used for AMS results%charges...
Scanning modes in range provided by user.


    =====================
     CALCULATION RESULTS
    =====================

Energy (hartree)            -0.71526953

Gradients (hartree/bohr)
  Index   Atom            d/dx            d/dy            d/dz
      1      C    0.0000000000    0.0000000000   -0.0001320648
      2      N    0.0000000000    0.0000000000    0.0000536100
      3      H    0.0000000000    0.0000000000    0.0000784548

 Symmetry: C(LIN)

 -----------------------
 Normal Mode Frequencies
 -----------------------

 Index   Frequency (cm-1)   Red. mass (u)  F const (Ha/Bohr^2)   Intensity (km/mol)    Irrep
     6           707.6454          1.3433             0.025456              82.1113       Pi
     7           707.6456          1.3433             0.025456              82.1113       Pi
     8          2063.5583          5.1067             0.822937               1.4724    Sigma
     9          3355.7913          1.1903             0.507286              82.4200    Sigma

 Zero-point energy (Hartree):     0.0156

 ------------
 Normal Modes
 ------------

 Number of removed rigid normal modes: 5
 
 Mode:     6      Frequency (cm-1):      707.6454     Intensity (km/mol):       82.1113     Irrep: Pi
 Index  Atom      ---- Displacements (x/y/z) ----
     1     C      -0.159314   0.005672  -0.000000
     2     N       0.065676  -0.002338  -0.000000
     3     H       0.984398  -0.035048   0.000000
 
 Mode:     7      Frequency (cm-1):      707.6456     Intensity (km/mol):       82.1113     Irrep: Pi
 Index  Atom      ---- Displacements (x/y/z) ----
     1     C       0.005672   0.159314  -0.000000
     2     N      -0.002338  -0.065676  -0.000000
     3     H      -0.035048  -0.984398   0.000000
 
 Mode:     8      Frequency (cm-1):     2063.5583     Intensity (km/mol):        1.4724     Irrep: Sigma
 Index  Atom      ---- Displacements (x/y/z) ----
     1     C      -0.000000   0.000000  -0.413807
     2     N       0.000000  -0.000000   0.413004
     3     H       0.000000  -0.000000  -0.811290
 
 Mode:     9      Frequency (cm-1):     3355.7913     Intensity (km/mol):       82.4200     Irrep: Sigma
 Index  Atom      ---- Displacements (x/y/z) ----
     1     C       0.000000  -0.000000  -0.123337
     2     N      -0.000000   0.000000   0.034315
     3     H      -0.000000   0.000000   0.991771

 Vibrational polarizability tensor (a.u.):
                  X                   Y                   Z
 X              27.92602            -0.00000             0.00005
 Y              -0.00000            27.92600            -0.00007
 Z               0.00005            -0.00007             1.30535

 Isotropic =      19.052    atomic units

PES point character: Geometry corresponds to a local minimum on the PES.




 ============================
 Statistical Thermal Analysis  ***  ideal gas assumed  ***
 ============================
  
 Pressure:                  1.000000 atm.
 Temperature:             298.150000 K



 Moments of Inertia [amu*bohr^2] and principal axis
 ==================================================

           0.0000         41.2627         41.2627
 ------------------------------------------------
           0.0000          0.0000          1.0000
           0.0000          1.0000          0.0000
           1.0000          0.0000          0.0000


 The rotational contribution to the molecular entropy includes
 a term, dependent on the symmetry number sigma. The results 
 reported below were computed using sigma = 1, determined from
 the point group symmetry of the input geometry (C(LIN)). 
 If this is not the correct symmetry, try symmetrizing the molecule before
 running the calculation (note: linear molecules should be aligned along one
 of the Cartesian axes).
 Contributions from frequencies below 20 1/cm are not included in vibrational sums.
 Their contributions, if any, are reported separately.


     Temp                                                        Transl      Rotat     Vibrat     Total
     ----                                                        ------      -----     ------     -----

     298.15   Entropy (cal/mol-K):                               35.816     11.836      0.595     48.248
              Nuclear Internal Energy (kcal/mol):                 0.889      0.592      9.908     11.390
              Constant Volume Heat Capacity (cal/mol-K):          2.981      1.987      1.639      6.607
          (c) Constant Volume Heat Capacity (cal/mol-K):          2.981      1.987      1.639      6.607

       Summary of energy terms
                                                   hartree              eV         kcal/mol           kJ/mol
                                      --------------------     -----------       ----------      -----------
      Energy from Engine:               -0.715269532086804        -19.4635          -448.84         -1877.94
      Nuclear Internal Energy:           0.018150610429433          0.4939            11.39            47.65
  (c) Nuclear Internal Energy:           0.018149585156401          0.4939            11.39            47.65
      Internal Energy U:                -0.697118921657371        -18.9696          -437.45         -1830.29
      pV/n = RT:                         0.000944186013486          0.0257             0.59             2.48
      Enthalpy H:                       -0.696174735643885        -18.9439          -436.86         -1827.81
      -T*S:                             -0.022924055223013         -0.6238           -14.39           -60.19
  (c) -T*S:                             -0.022924286987419         -0.6238           -14.39           -60.19
      Gibbs free energy:                -0.719098790866898        -19.5677          -451.24         -1887.99
 
 
 
  (c) The properties marked with this symbol have been corrected using 'low vibrational frequency free rotor
      interpolation corrections'. For those terms all positive frequencies are used (also ones below 20 1/cm),
      but the contribution to the partition function of small vibrational frequencies is modified as described
      in the following paper:
      S. Grimme, 'Supramolecular Binding Thermodynamics by Dispersion-Corrected Density Functional Theory'
      (Chem. Eur. J. 2012, 18, 9955-9964)
      Configuration: Dampener Frequency          :   100.000 1/cm
                     Dampener Alpha              :     4.000
                     Averaging Moment of Inertia : 1.000E-44 kg m2

--------------
Atomic charges
--------------
  Index   Atom    Charge
      1      C    0.0097
      2      N   -0.3689
      3      H    0.3592


Dipole moment vector    (Debye):     0.00000000    0.00000000    3.14860472
              magnitude (Debye):     3.14860472


-----------------------
Molecular orbitals info
-----------------------
n orbitals:               18
n spin:                    1

HOMO (eV):              -9.3595
LUMO (eV):              -1.4999
HOMO-LUMO gap (eV):      7.8595

   Index   Energy (eV)    Occupation
      18       53.3129         0.000       
      17       28.7726         0.000       
      16       24.7167         0.000       
      15       20.6334         0.000       
      14       20.6334         0.000       
      13       17.6289         0.000       
      12       12.2248         0.000       
      11       11.4585         0.000       
      10       11.4585         0.000       
       9        4.1999         0.000       
       8        0.4479         0.000       
       7       -1.4999         0.000       
       6       -1.4999         0.000 < LUMO
       5       -9.3595         2.000 < HOMO
       4       -9.8222         2.000       
       3       -9.8222         2.000       
       2      -15.5143         2.000       
       1      -24.3623         2.000       

Final PES point is a local minimum. Geometry optimization successful!


AMS application finished. Exiting.
NORMAL TERMINATION
     Total cpu time:      15.27
  Total system time:      22.95
 Total elapsed time:      43.92
