 Entering Gaussian System, Link 0=g09
 Initial command:
 /apps/gaussian/g09/l1.exe /scratch_l/henon/5Rfreq_28178/Gau-28194.inp -scrdir=/scratch_l/henon/5Rfreq_28178/
 Entering Link 1 = /apps/gaussian/g09/l1.exe PID=     28195.
  
 Copyright (c) 1988,1990,1992,1993,1995,1998,2003,2009, Gaussian, Inc.
                  All Rights Reserved.
  
 This is part of the Gaussian(R) 09 program.  It is based on
 the Gaussian(R) 03 system (copyright 2003, Gaussian, Inc.),
 the Gaussian(R) 98 system (copyright 1998, Gaussian, Inc.),
 the Gaussian(R) 94 system (copyright 1995, Gaussian, Inc.),
 the Gaussian 92(TM) system (copyright 1992, Gaussian, Inc.),
 the Gaussian 90(TM) system (copyright 1990, Gaussian, Inc.),
 the Gaussian 88(TM) system (copyright 1988, Gaussian, Inc.),
 the Gaussian 86(TM) system (copyright 1986, Carnegie Mellon
 University), and the Gaussian 82(TM) system (copyright 1983,
 Carnegie Mellon University). Gaussian is a federally registered
 trademark of Gaussian, Inc.
  
 This software contains proprietary and confidential information,
 including trade secrets, belonging to Gaussian, Inc.
  
 This software is provided under written license and may be
 used, copied, transmitted, or stored only in accord with that
 written license.
  
 The following legend is applicable only to US Government
 contracts under FAR:
  
                    RESTRICTED RIGHTS LEGEND
  
 Use, reproduction and disclosure by the US Government is
 subject to restrictions as set forth in subparagraphs (a)
 and (c) of the Commercial Computer Software - Restricted
 Rights clause in FAR 52.227-19.
  
 Gaussian, Inc.
 340 Quinnipiac St., Bldg. 40, Wallingford CT 06492
  
  
 ---------------------------------------------------------------
 Warning -- This program may not be used in any manner that
 competes with the business of Gaussian, Inc. or will provide
 assistance to any competitor of Gaussian, Inc.  The licensee
 of this program is prohibited from giving any competitor of
 Gaussian, Inc. access to this program.  By using this program,
 the user acknowledges that Gaussian, Inc. is engaged in the
 business of creating and licensing software in the field of
 computational chemistry and represents and warrants to the
 licensee that it is not a competitor of Gaussian, Inc. and that
 it will not use this program in any manner prohibited above.
 ---------------------------------------------------------------
  

 Cite this work as:
 Gaussian 09, Revision A.02,
 M. J. Frisch, G. W. Trucks, H. B. Schlegel, G. E. Scuseria, 
 M. A. Robb, J. R. Cheeseman, G. Scalmani, V. Barone, B. Mennucci, 
 G. A. Petersson, H. Nakatsuji, M. Caricato, X. Li, H. P. Hratchian, 
 A. F. Izmaylov, J. Bloino, G. Zheng, J. L. Sonnenberg, M. Hada, 
 M. Ehara, K. Toyota, R. Fukuda, J. Hasegawa, M. Ishida, T. Nakajima, 
 Y. Honda, O. Kitao, H. Nakai, T. Vreven, J. A. Montgomery, Jr., 
 J. E. Peralta, F. Ogliaro, M. Bearpark, J. J. Heyd, E. Brothers, 
 K. N. Kudin, V. N. Staroverov, R. Kobayashi, J. Normand, 
 K. Raghavachari, A. Rendell, J. C. Burant, S. S. Iyengar, J. Tomasi, 
 M. Cossi, N. Rega, J. M. Millam, M. Klene, J. E. Knox, J. B. Cross, 
 V. Bakken, C. Adamo, J. Jaramillo, R. Gomperts, R. E. Stratmann, 
 O. Yazyev, A. J. Austin, R. Cammi, C. Pomelli, J. W. Ochterski, 
 R. L. Martin, K. Morokuma, V. G. Zakrzewski, G. A. Voth, 
 P. Salvador, J. J. Dannenberg, S. Dapprich, A. D. Daniels, 
 O. Farkas, J. B. Foresman, J. V. Ortiz, J. Cioslowski, 
 and D. J. Fox, Gaussian, Inc., Wallingford CT, 2009.
 
 ******************************************
 Gaussian 09:  AM64L-G09RevA.02 11-Jun-2009
                29-Apr-2014 
 ******************************************
 %NPROC=12
 Will use up to   12 processors via shared memory.
 %MEM=500MB
 --------------------------------------------------
 #P M06 6-311G** FREQ # GFINPUT IOP(6/7=3) POP=FULL
 --------------------------------------------------
 1/10=4,30=1,38=1/1,3;
 2/12=2,17=6,18=5,40=1/2;
 3/5=4,6=6,7=101,11=2,16=1,24=10,25=1,30=1,71=2,74=-54/1,2,3;
 4//1;
 5/5=2,38=5,98=1/2;
 8/6=4,10=90,11=11/1;
 11/6=1,8=1,9=11,15=111,16=1/1,2,10;
 10/6=1/2;
 6/7=3,18=1,28=1/1;
 7/8=1,10=1,25=1/1,2,3,16;
 1/10=4,30=1/3;
 99//99;
 Leave Link    1 at Tue Apr 29 14:51:48 2014, MaxMem=   65536000 cpu:       0.3
 (Enter /apps/gaussian/g09/l101.exe)
 ---------------------
 RC, from TS reverse 5
 ---------------------
 Symbolic Z-matrix:
 Charge =  0 Multiplicity = 2
 7                    -0.10525  -0.0603    0.0958 
 7                    -0.2368   -0.02461   1.21863 
 7                     0.28444  -0.01621  -1.07657 
 1                    -0.49683  -0.0202   -1.73039 
 1                     1.29731   1.42528  -1.57457 
 
 NAtoms=      5 NQM=      5 NQMF=      0 NMic=      0 NMicF=      0 NTot=      5.
                    Isotopes and Nuclear Properties:
 (Nuclear quadrupole moments (NQMom) in fm**2, nuclear magnetic moments (NMagM)
  in nuclear magnetons)

  Atom         1           2           3           4           5
 IAtWgt=          14          14          14           1           1
 AtmWgt=  14.0030740  14.0030740  14.0030740   1.0078250   1.0078250
 NucSpn=           2           2           2           1           1
 AtZEff=   0.0000000   0.0000000   0.0000000   0.0000000   0.0000000
 NQMom=    2.0440000   2.0440000   2.0440000   0.0000000   0.0000000
 NMagM=    0.4037610   0.4037610   0.4037610   2.7928460   2.7928460
 Leave Link  101 at Tue Apr 29 14:51:48 2014, MaxMem=   65536000 cpu:       0.5
 (Enter /apps/gaussian/g09/l103.exe)

 GradGradGradGradGradGradGradGradGradGradGradGradGradGradGradGradGradGrad
 Berny optimization.
 Initialization pass.
 Trust Radius=3.00D-01 FncErr=1.00D-07 GrdErr=1.00D-07
 Number of steps in this run=   2 maximum allowed number of steps=   2.
 GradGradGradGradGradGradGradGradGradGradGradGradGradGradGradGradGradGrad

 Leave Link  103 at Tue Apr 29 14:51:48 2014, MaxMem=   65536000 cpu:       0.1
 (Enter /apps/gaussian/g09/l202.exe)
                          Input orientation:                          
 ---------------------------------------------------------------------
 Center     Atomic      Atomic             Coordinates (Angstroms)
 Number     Number       Type             X           Y           Z
 ---------------------------------------------------------------------
      1          7           0       -0.105254   -0.060299    0.095801
      2          7           0       -0.236800   -0.024613    1.218632
      3          7           0        0.284443   -0.016213   -1.076568
      4          1           0       -0.496831   -0.020203   -1.730394
      5          1           0        1.297307    1.425276   -1.574574
 ---------------------------------------------------------------------
                    Distance matrix (angstroms):
                    1          2          3          4          5
     1  N    0.000000
     2  N    1.131074   0.000000
     3  N    1.236227   2.353658   0.000000
     4  H    1.868135   2.960471   1.018771   0.000000
     5  H    2.638989   3.501094   1.830791   2.309247   0.000000
 Stoichiometry    H2N3(2)
 Framework group  C1[X(H2N3)]
 Deg. of freedom     9
 Full point group                 C1      NOp   1
 Largest Abelian subgroup         C1      NOp   1
 Largest concise Abelian subgroup C1      NOp   1
                         Standard orientation:                         
 ---------------------------------------------------------------------
 Center     Atomic      Atomic             Coordinates (Angstroms)
 Number     Number       Type             X           Y           Z
 ---------------------------------------------------------------------
      1          7           0        0.200752   -0.103756    0.008874
      2          7           0        1.310899    0.112565    0.019176
      3          7           0       -1.028067   -0.106072   -0.126239
      4          1           0       -1.470804   -0.782773    0.493400
      5          1           0       -1.914282    1.463615    0.193919
 ---------------------------------------------------------------------
 Rotational constants (GHZ):    138.2181840     11.0793264     10.4575070
 Leave Link  202 at Tue Apr 29 14:51:48 2014, MaxMem=   65536000 cpu:       0.0
 (Enter /apps/gaussian/g09/l301.exe)
 Standard basis: 6-311G(d,p) (5D, 7F)
 Ernie: Thresh=  0.10000D-02 Tol=  0.10000D-05 Strict=F.
 AO basis set in the form of general basis input (Overlap normalization):
      1 0
 S   6 1.00       0.000000000000
      0.6293480000D+04  0.1969788147D-02
      0.9490440000D+03  0.1496128592D-01
      0.2187760000D+03  0.7350053084D-01
      0.6369160000D+02  0.2489367658D+00
      0.1882820000D+02  0.6024594331D+00
      0.2720230000D+01  0.2562017589D+00
 SP   3 1.00       0.000000000000
      0.3063310000D+02  0.1119060795D+00  0.3831191864D-01
      0.7026140000D+01  0.9216666549D+00  0.2374031155D+00
      0.2112050000D+01 -0.2569191826D-02  0.8175923978D+00
 SP   1 1.00       0.000000000000
      0.6840090000D+00  0.1000000000D+01  0.1000000000D+01
 SP   1 1.00       0.000000000000
      0.2008780000D+00  0.1000000000D+01  0.1000000000D+01
 D   1 1.00       0.000000000000
      0.9130000000D+00  0.1000000000D+01
 ****
      2 0
 S   6 1.00       0.000000000000
      0.6293480000D+04  0.1969788147D-02
      0.9490440000D+03  0.1496128592D-01
      0.2187760000D+03  0.7350053084D-01
      0.6369160000D+02  0.2489367658D+00
      0.1882820000D+02  0.6024594331D+00
      0.2720230000D+01  0.2562017589D+00
 SP   3 1.00       0.000000000000
      0.3063310000D+02  0.1119060795D+00  0.3831191864D-01
      0.7026140000D+01  0.9216666549D+00  0.2374031155D+00
      0.2112050000D+01 -0.2569191826D-02  0.8175923978D+00
 SP   1 1.00       0.000000000000
      0.6840090000D+00  0.1000000000D+01  0.1000000000D+01
 SP   1 1.00       0.000000000000
      0.2008780000D+00  0.1000000000D+01  0.1000000000D+01
 D   1 1.00       0.000000000000
      0.9130000000D+00  0.1000000000D+01
 ****
      3 0
 S   6 1.00       0.000000000000
      0.6293480000D+04  0.1969788147D-02
      0.9490440000D+03  0.1496128592D-01
      0.2187760000D+03  0.7350053084D-01
      0.6369160000D+02  0.2489367658D+00
      0.1882820000D+02  0.6024594331D+00
      0.2720230000D+01  0.2562017589D+00
 SP   3 1.00       0.000000000000
      0.3063310000D+02  0.1119060795D+00  0.3831191864D-01
      0.7026140000D+01  0.9216666549D+00  0.2374031155D+00
      0.2112050000D+01 -0.2569191826D-02  0.8175923978D+00
 SP   1 1.00       0.000000000000
      0.6840090000D+00  0.1000000000D+01  0.1000000000D+01
 SP   1 1.00       0.000000000000
      0.2008780000D+00  0.1000000000D+01  0.1000000000D+01
 D   1 1.00       0.000000000000
      0.9130000000D+00  0.1000000000D+01
 ****
      4 0
 S   3 1.00       0.000000000000
      0.3386500000D+02  0.2549381454D-01
      0.5094790000D+01  0.1903731086D+00
      0.1158790000D+01  0.8521614860D+00
 S   1 1.00       0.000000000000
      0.3258400000D+00  0.1000000000D+01
 S   1 1.00       0.000000000000
      0.1027410000D+00  0.1000000000D+01
 P   1 1.00       0.000000000000
      0.7500000000D+00  0.1000000000D+01
 ****
      5 0
 S   3 1.00       0.000000000000
      0.3386500000D+02  0.2549381454D-01
      0.5094790000D+01  0.1903731086D+00
      0.1158790000D+01  0.8521614860D+00
 S   1 1.00       0.000000000000
      0.3258400000D+00  0.1000000000D+01
 S   1 1.00       0.000000000000
      0.1027410000D+00  0.1000000000D+01
 P   1 1.00       0.000000000000
      0.7500000000D+00  0.1000000000D+01
 ****

 There are    66 symmetry adapted basis functions of A   symmetry.
 Integral buffers will be    131072 words long.
 Raffenetti 2 integral format.
 Two-electron integral symmetry is turned on.
    66 basis functions,   112 primitive gaussians,    69 cartesian basis functions
    12 alpha electrons       11 beta electrons
       nuclear repulsion energy        66.5006805036 Hartrees.
 IExCor= 4235 DFT=T Ex+Corr=M06 ExCW=0 ScaHFX=  0.270000
 ScaDFX=  1.000000  1.000000  1.000000  1.000000 ScalE2=  1.000000  1.000000
 IRadAn=      0 IRanWt=     -1 IRanGd=            0 ICorTp=0
 NAtoms=    5 NActive=    5 NUniq=    5 SFac= 7.50D-01 NAtFMM=   80 NAOKFM=F Big=F
 Leave Link  301 at Tue Apr 29 14:51:48 2014, MaxMem=   65536000 cpu:       0.3
 (Enter /apps/gaussian/g09/l302.exe)
 NPDir=0 NMtPBC=     1 NCelOv=     1 NCel=       1 NClECP=     1 NCelD=      1
         NCelK=      1 NCelE2=     1 NClLst=     1 CellRange=     0.0.
 One-electron integrals computed using PRISM.
 NBasis=    66 RedAO= T  NBF=    66
 NBsUse=    66 1.00D-06 NBFU=    66
 Precomputing XC quadrature grid using
 IXCGrd= 2 IRadAn=           0 IRanWt=          -1 IRanGd=           0 AccXCQ= 1.00D-10.
 NRdTot=     311 NPtTot=       39452 NUsed=       41707 NTot=       41739
 NSgBfM=    69    69    69    69    69 NAtAll=     5     5.
 Leave Link  302 at Tue Apr 29 14:51:48 2014, MaxMem=   65536000 cpu:       2.4
 (Enter /apps/gaussian/g09/l303.exe)
 DipDrv:  MaxL=1.
 Leave Link  303 at Tue Apr 29 14:51:48 2014, MaxMem=   65536000 cpu:       0.2
 (Enter /apps/gaussian/g09/l401.exe)
 Harris functional with IExCor= 1009 diagonalized for initial guess.
 ExpMin= 1.03D-01 ExpMax= 6.29D+03 ExpMxC= 9.49D+02 IAcc=1 IRadAn=         1 AccDes= 0.00D+00
 HarFok:  IExCor= 1009 AccDes= 0.00D+00 IRadAn=         1 IDoV= 1
 ScaDFX=  1.000000  1.000000  1.000000  1.000000
 FoFCou: FMM=F IPFlag=           0 FMFlag=      100000 FMFlg1=           0
         NFxFlg=           0 DoJE=T BraDBF=F KetDBF=T FulRan=T
         Omega=  0.000000  0.000000  1.000000  0.000000  0.000000 ICntrl=     500 IOpCl=  0
         NMat0=    1 NMatS0=    1 NMatT0=    0 NMatD0=    1 NMtDS0=    0 NMtDT0=    0
         I1Cent=           4 NGrid=           0.
 Petite list used in FoFCou.
 Harris En= -165.165117055587    
 Initial guess orbital symmetries:
 Alpha Orbitals:
       Occupied  (A) (A) (A) (A) (A) (A) (A) (A) (A) (A) (A) (A)
       Virtual   (A) (A) (A) (A) (A) (A) (A) (A) (A) (A) (A) (A)
                 (A) (A) (A) (A) (A) (A) (A) (A) (A) (A) (A) (A)
                 (A) (A) (A) (A) (A) (A) (A) (A) (A) (A) (A) (A)
                 (A) (A) (A) (A) (A) (A) (A) (A) (A) (A) (A) (A)
                 (A) (A) (A) (A) (A) (A)
 Beta  Orbitals:
       Occupied  (A) (A) (A) (A) (A) (A) (A) (A) (A) (A) (A)
       Virtual   (A) (A) (A) (A) (A) (A) (A) (A) (A) (A) (A) (A)
                 (A) (A) (A) (A) (A) (A) (A) (A) (A) (A) (A) (A)
                 (A) (A) (A) (A) (A) (A) (A) (A) (A) (A) (A) (A)
                 (A) (A) (A) (A) (A) (A) (A) (A) (A) (A) (A) (A)
                 (A) (A) (A) (A) (A) (A) (A)
 The electronic state of the initial guess is 2-A.
 Initial guess <Sx>= 0.0000 <Sy>= 0.0000 <Sz>= 0.5000 <S**2>= 0.7500 S= 0.5000
 Leave Link  401 at Tue Apr 29 14:51:49 2014, MaxMem=   65536000 cpu:       3.0
 (Enter /apps/gaussian/g09/l502.exe)
 UHF open shell SCF:
 Requested convergence on RMS density matrix=1.00D-08 within 128 cycles.
 Requested convergence on MAX density matrix=1.00D-06.
 Requested convergence on             energy=1.00D-06.
 No special actions if energy rises.
 Using DIIS extrapolation, IDIIS=  1040.
 Integral symmetry usage will be decided dynamically.
        41649 words used for storage of precomputed grid.
 Keep R1 and R2 ints in memory in canonical form, NReq=6799222.
 IEnd=       75419 IEndB=       75419 NGot=    65536000 MDV=    59647384
 LenX=    59647384 LenY=    59642182
 Symmetry not used in FoFDir.
 MinBra= 0 MaxBra= 2 Meth= 1.
 IRaf=       0 NMat=   1 IRICut=       1 DoRegI=T DoRafI=F ISym2E= 0 JSym2E=0.
 Integral accuracy reduced to 1.0D-05 until final iterations.

 Cycle   1  Pass 0  IDiag  1:
 E= -165.179718165471    
 DIIS: error= 2.50D-02 at cycle   1 NSaved=   1.
 NSaved= 1 IEnMin= 1 EnMin= -165.179718165471     IErMin= 1 ErrMin= 2.50D-02
 ErrMax= 2.50D-02 EMaxC= 1.00D-01 BMatC= 2.11D-01 BMatP= 2.11D-01
 IDIUse=3 WtCom= 7.50D-01 WtEn= 2.50D-01
 Coeff-Com:  0.100D+01
 Coeff-En:   0.100D+01
 Coeff:      0.100D+01
 Gap=     0.181 Goal=   None    Shift=    0.000
 Gap=     0.203 Goal=   None    Shift=    0.000
 GapD=    0.181 DampG=1.000 DampE=0.500 DampFc=0.5000 IDamp=-1.
 Damping current iteration by 5.00D-01
 RMSDP=5.87D-03 MaxDP=1.33D-01              OVMax= 1.37D-01

 Cycle   2  Pass 0  IDiag  1:
 E= -165.192679532330     Delta-E=       -0.012961366859 Rises=F Damp=T
 DIIS: error= 8.96D-03 at cycle   2 NSaved=   2.
 NSaved= 2 IEnMin= 2 EnMin= -165.192679532330     IErMin= 2 ErrMin= 8.96D-03
 ErrMax= 8.96D-03 EMaxC= 1.00D-01 BMatC= 3.35D-02 BMatP= 2.11D-01
 IDIUse=3 WtCom= 9.10D-01 WtEn= 8.96D-02
 Coeff-Com:  0.218D+00 0.782D+00
 Coeff-En:   0.311D+00 0.689D+00
 Coeff:      0.226D+00 0.774D+00
 Gap=     0.185 Goal=   None    Shift=    0.000
 Gap=     0.227 Goal=   None    Shift=    0.000
 RMSDP=1.32D-03 MaxDP=2.12D-02 DE=-1.30D-02 OVMax= 8.94D-02

 Cycle   3  Pass 0  IDiag  1:
 E= -165.220961014439     Delta-E=       -0.028281482109 Rises=F Damp=F
 DIIS: error= 6.96D-03 at cycle   3 NSaved=   3.
 NSaved= 3 IEnMin= 3 EnMin= -165.220961014439     IErMin= 3 ErrMin= 6.96D-03
 ErrMax= 6.96D-03 EMaxC= 1.00D-01 BMatC= 1.06D-02 BMatP= 3.35D-02
 IDIUse=3 WtCom= 9.30D-01 WtEn= 6.96D-02
 Coeff-Com:  0.446D-01 0.342D+00 0.613D+00
 Coeff-En:   0.000D+00 0.000D+00 0.100D+01
 Coeff:      0.415D-01 0.318D+00 0.640D+00
 Gap=     0.185 Goal=   None    Shift=    0.000
 Gap=     0.242 Goal=   None    Shift=    0.000
 RMSDP=8.34D-04 MaxDP=1.08D-02 DE=-2.83D-02 OVMax= 3.18D-02

 Cycle   4  Pass 0  IDiag  1:
 E= -165.221110670585     Delta-E=       -0.000149656147 Rises=F Damp=F
 DIIS: error= 9.49D-03 at cycle   4 NSaved=   4.
 NSaved= 4 IEnMin= 4 EnMin= -165.221110670585     IErMin= 3 ErrMin= 6.96D-03
 ErrMax= 9.49D-03 EMaxC= 1.00D-01 BMatC= 1.08D-02 BMatP= 1.06D-02
 IDIUse=3 WtCom= 9.05D-01 WtEn= 9.49D-02
 Coeff-Com:  0.104D-02 0.123D+00 0.496D+00 0.379D+00
 Coeff-En:   0.000D+00 0.000D+00 0.486D+00 0.514D+00
 Coeff:      0.941D-03 0.112D+00 0.495D+00 0.392D+00
 Gap=     0.184 Goal=   None    Shift=    0.000
 Gap=     0.241 Goal=   None    Shift=    0.000
 RMSDP=5.54D-04 MaxDP=5.83D-03 DE=-1.50D-04 OVMax= 2.39D-02

 Cycle   5  Pass 0  IDiag  1:
 E= -165.223260756541     Delta-E=       -0.002150085956 Rises=F Damp=F
 DIIS: error= 2.60D-03 at cycle   5 NSaved=   5.
 NSaved= 5 IEnMin= 5 EnMin= -165.223260756541     IErMin= 5 ErrMin= 2.60D-03
 ErrMax= 2.60D-03 EMaxC= 1.00D-01 BMatC= 9.11D-04 BMatP= 1.06D-02
 IDIUse=3 WtCom= 9.74D-01 WtEn= 2.60D-02
 Coeff-Com: -0.115D-01-0.287D-02 0.166D+00 0.252D+00 0.597D+00
 Coeff-En:   0.000D+00 0.000D+00 0.000D+00 0.718D-01 0.928D+00
 Coeff:     -0.112D-01-0.279D-02 0.162D+00 0.247D+00 0.605D+00
 Gap=     0.190 Goal=   None    Shift=    0.000
 Gap=     0.243 Goal=   None    Shift=    0.000
 RMSDP=2.80D-04 MaxDP=4.53D-03 DE=-2.15D-03 OVMax= 1.50D-02

 Cycle   6  Pass 0  IDiag  1:
 E= -165.223531181396     Delta-E=       -0.000270424854 Rises=F Damp=F
 DIIS: error= 8.00D-04 at cycle   6 NSaved=   6.
 NSaved= 6 IEnMin= 6 EnMin= -165.223531181396     IErMin= 6 ErrMin= 8.00D-04
 ErrMax= 8.00D-04 EMaxC= 1.00D-01 BMatC= 8.77D-05 BMatP= 9.11D-04
 IDIUse=3 WtCom= 9.92D-01 WtEn= 8.00D-03
 Coeff-Com: -0.736D-02-0.110D-01-0.784D-01-0.795D-01 0.124D+00 0.105D+01
 Coeff-En:   0.000D+00 0.000D+00 0.000D+00 0.000D+00 0.000D+00 0.100D+01
 Coeff:     -0.730D-02-0.109D-01-0.778D-01-0.789D-01 0.123D+00 0.105D+01
 Gap=     0.191 Goal=   None    Shift=    0.000
 Gap=     0.246 Goal=   None    Shift=    0.000
 RMSDP=1.21D-04 MaxDP=1.85D-03 DE=-2.70D-04 OVMax= 7.49D-03

 Cycle   7  Pass 0  IDiag  1:
 E= -165.223581157571     Delta-E=       -0.000049976175 Rises=F Damp=F
 DIIS: error= 1.61D-04 at cycle   7 NSaved=   7.
 NSaved= 7 IEnMin= 7 EnMin= -165.223581157571     IErMin= 7 ErrMin= 1.61D-04
 ErrMax= 1.61D-04 EMaxC= 1.00D-01 BMatC= 4.39D-06 BMatP= 8.77D-05
 IDIUse=3 WtCom= 9.98D-01 WtEn= 1.61D-03
 Coeff-Com: -0.290D-03 0.851D-03-0.238D-01-0.344D-01-0.707D-01 0.153D+00
 Coeff-Com:  0.976D+00
 Coeff-En:   0.000D+00 0.000D+00 0.000D+00 0.000D+00 0.000D+00 0.000D+00
 Coeff-En:   0.100D+01
 Coeff:     -0.289D-03 0.850D-03-0.238D-01-0.344D-01-0.706D-01 0.152D+00
 Coeff:      0.976D+00
 Gap=     0.191 Goal=   None    Shift=    0.000
 Gap=     0.247 Goal=   None    Shift=    0.000
 RMSDP=4.70D-05 MaxDP=8.02D-04 DE=-5.00D-05 OVMax= 2.07D-03

 Cycle   8  Pass 0  IDiag  1:
 E= -165.223584620432     Delta-E=       -0.000003462861 Rises=F Damp=F
 DIIS: error= 4.59D-05 at cycle   8 NSaved=   8.
 NSaved= 8 IEnMin= 8 EnMin= -165.223584620432     IErMin= 8 ErrMin= 4.59D-05
 ErrMax= 4.59D-05 EMaxC= 1.00D-01 BMatC= 2.14D-07 BMatP= 4.39D-06
 IDIUse=1 WtCom= 1.00D+00 WtEn= 0.00D+00
 Coeff-Com:  0.359D-03 0.680D-03 0.531D-02 0.266D-02-0.406D-02-0.553D-01
 Coeff-Com: -0.467D-01 0.110D+01
 Coeff:      0.359D-03 0.680D-03 0.531D-02 0.266D-02-0.406D-02-0.553D-01
 Coeff:     -0.467D-01 0.110D+01
 Gap=     0.192 Goal=   None    Shift=    0.000
 Gap=     0.247 Goal=   None    Shift=    0.000
 RMSDP=1.06D-05 MaxDP=1.53D-04 DE=-3.46D-06 OVMax= 5.24D-04

 Cycle   9  Pass 0  IDiag  1:
 E= -165.223584847074     Delta-E=       -0.000000226642 Rises=F Damp=F
 DIIS: error= 9.45D-06 at cycle   9 NSaved=   9.
 NSaved= 9 IEnMin= 9 EnMin= -165.223584847074     IErMin= 9 ErrMin= 9.45D-06
 ErrMax= 9.45D-06 EMaxC= 1.00D-01 BMatC= 2.13D-08 BMatP= 2.14D-07
 IDIUse=1 WtCom= 1.00D+00 WtEn= 0.00D+00
 Coeff-Com: -0.455D-04 0.138D-03 0.195D-02 0.287D-02 0.614D-02-0.130D-01
 Coeff-Com: -0.843D-01-0.470D-02 0.109D+01
 Coeff:     -0.455D-04 0.138D-03 0.195D-02 0.287D-02 0.614D-02-0.130D-01
 Coeff:     -0.843D-01-0.470D-02 0.109D+01
 Gap=     0.192 Goal=   None    Shift=    0.000
 Gap=     0.247 Goal=   None    Shift=    0.000
 RMSDP=3.58D-06 MaxDP=4.00D-05 DE=-2.27D-07 OVMax= 1.78D-04

 Initial convergence to 1.0D-05 achieved.  Increase integral accuracy.
 Cycle  10  Pass 1  IDiag  1:
 E= -165.223583449848     Delta-E=        0.000001397227 Rises=F Damp=F
 DIIS: error= 2.38D-04 at cycle   1 NSaved=   1.
 NSaved= 1 IEnMin= 1 EnMin= -165.223583449848     IErMin= 1 ErrMin= 2.38D-04
 ErrMax= 2.38D-04 EMaxC= 1.00D-01 BMatC= 2.13D-05 BMatP= 2.13D-05
 IDIUse=3 WtCom= 9.98D-01 WtEn= 2.38D-03
 Coeff-Com:  0.100D+01
 Coeff-En:   0.100D+01
 Coeff:      0.100D+01
 Gap=     0.191 Goal=   None    Shift=    0.000
 Gap=     0.247 Goal=   None    Shift=    0.000
 RMSDP=3.58D-06 MaxDP=4.00D-05 DE= 1.40D-06 OVMax= 6.64D-04

 Cycle  11  Pass 1  IDiag  1:
 E= -165.223587534642     Delta-E=       -0.000004084795 Rises=F Damp=F
 DIIS: error= 2.13D-05 at cycle   2 NSaved=   2.
 NSaved= 2 IEnMin= 2 EnMin= -165.223587534642     IErMin= 2 ErrMin= 2.13D-05
 ErrMax= 2.13D-05 EMaxC= 1.00D-01 BMatC= 1.44D-07 BMatP= 2.13D-05
 IDIUse=1 WtCom= 1.00D+00 WtEn= 0.00D+00
 Coeff-Com:  0.125D-01 0.987D+00
 Coeff:      0.125D-01 0.987D+00
 Gap=     0.191 Goal=   None    Shift=    0.000
 Gap=     0.247 Goal=   None    Shift=    0.000
 RMSDP=6.26D-06 MaxDP=1.07D-04 DE=-4.08D-06 OVMax= 1.05D-04

 Cycle  12  Pass 1  IDiag  1:
 E= -165.223587502306     Delta-E=        0.000000032337 Rises=F Damp=F
 DIIS: error= 3.89D-05 at cycle   3 NSaved=   3.
 NSaved= 3 IEnMin= 2 EnMin= -165.223587534642     IErMin= 2 ErrMin= 2.13D-05
 ErrMax= 3.89D-05 EMaxC= 1.00D-01 BMatC= 3.71D-07 BMatP= 1.44D-07
 IDIUse=1 WtCom= 1.00D+00 WtEn= 0.00D+00
 Coeff-Com:  0.160D-02 0.638D+00 0.361D+00
 Coeff:      0.160D-02 0.638D+00 0.361D+00
 Gap=     0.191 Goal=   None    Shift=    0.000
 Gap=     0.247 Goal=   None    Shift=    0.000
 RMSDP=3.05D-06 MaxDP=3.96D-05 DE= 3.23D-08 OVMax= 1.06D-04

 Cycle  13  Pass 1  IDiag  1:
 E= -165.223587563032     Delta-E=       -0.000000060726 Rises=F Damp=F
 DIIS: error= 2.02D-05 at cycle   4 NSaved=   4.
 NSaved= 4 IEnMin= 4 EnMin= -165.223587563032     IErMin= 4 ErrMin= 2.02D-05
 ErrMax= 2.02D-05 EMaxC= 1.00D-01 BMatC= 4.28D-08 BMatP= 1.44D-07
 IDIUse=1 WtCom= 1.00D+00 WtEn= 0.00D+00
 Coeff-Com: -0.212D-02 0.156D+00 0.246D+00 0.600D+00
 Coeff:     -0.212D-02 0.156D+00 0.246D+00 0.600D+00
 Gap=     0.192 Goal=   None    Shift=    0.000
 Gap=     0.247 Goal=   None    Shift=    0.000
 RMSDP=1.71D-06 MaxDP=1.92D-05 DE=-6.07D-08 OVMax= 7.71D-05

 Cycle  14  Pass 1  IDiag  1:
 E= -165.223587570111     Delta-E=       -0.000000007079 Rises=F Damp=F
 DIIS: error= 1.03D-05 at cycle   5 NSaved=   5.
 NSaved= 5 IEnMin= 5 EnMin= -165.223587570111     IErMin= 5 ErrMin= 1.03D-05
 ErrMax= 1.03D-05 EMaxC= 1.00D-01 BMatC= 1.41D-08 BMatP= 4.28D-08
 IDIUse=1 WtCom= 1.00D+00 WtEn= 0.00D+00
 Coeff-Com: -0.181D-02-0.378D-02 0.996D-01 0.441D+00 0.465D+00
 Coeff:     -0.181D-02-0.378D-02 0.996D-01 0.441D+00 0.465D+00
 Gap=     0.191 Goal=   None    Shift=    0.000
 Gap=     0.247 Goal=   None    Shift=    0.000
 RMSDP=6.16D-07 MaxDP=7.28D-06 DE=-7.08D-09 OVMax= 2.33D-05

 Cycle  15  Pass 1  IDiag  1:
 E= -165.223587573346     Delta-E=       -0.000000003235 Rises=F Damp=F
 DIIS: error= 1.75D-06 at cycle   6 NSaved=   6.
 NSaved= 6 IEnMin= 6 EnMin= -165.223587573346     IErMin= 6 ErrMin= 1.75D-06
 ErrMax= 1.75D-06 EMaxC= 1.00D-01 BMatC= 5.48D-10 BMatP= 1.41D-08
 IDIUse=1 WtCom= 1.00D+00 WtEn= 0.00D+00
 Coeff-Com: -0.720D-03-0.143D-01 0.242D-01 0.160D+00 0.205D+00 0.626D+00
 Coeff:     -0.720D-03-0.143D-01 0.242D-01 0.160D+00 0.205D+00 0.626D+00
 Gap=     0.191 Goal=   None    Shift=    0.000
 Gap=     0.247 Goal=   None    Shift=    0.000
 RMSDP=1.78D-07 MaxDP=2.57D-06 DE=-3.24D-09 OVMax= 8.66D-06

 Cycle  16  Pass 1  IDiag  1:
 E= -165.223587573529     Delta-E=       -0.000000000183 Rises=F Damp=F
 DIIS: error= 5.68D-07 at cycle   7 NSaved=   7.
 NSaved= 7 IEnMin= 7 EnMin= -165.223587573529     IErMin= 7 ErrMin= 5.68D-07
 ErrMax= 5.68D-07 EMaxC= 1.00D-01 BMatC= 8.70D-11 BMatP= 5.48D-10
 IDIUse=1 WtCom= 1.00D+00 WtEn= 0.00D+00
 Coeff-Com:  0.266D-03-0.503D-02-0.156D-01-0.627D-01-0.761D-01 0.141D+00
 Coeff-Com:  0.102D+01
 Coeff:      0.266D-03-0.503D-02-0.156D-01-0.627D-01-0.761D-01 0.141D+00
 Coeff:      0.102D+01
 Gap=     0.191 Goal=   None    Shift=    0.000
 Gap=     0.247 Goal=   None    Shift=    0.000
 RMSDP=1.57D-07 MaxDP=2.09D-06 DE=-1.83D-10 OVMax= 7.40D-06

 Cycle  17  Pass 1  IDiag  1:
 E= -165.223587573601     Delta-E=       -0.000000000072 Rises=F Damp=F
 DIIS: error= 2.70D-07 at cycle   8 NSaved=   8.
 NSaved= 8 IEnMin= 8 EnMin= -165.223587573601     IErMin= 8 ErrMin= 2.70D-07
 ErrMax= 2.70D-07 EMaxC= 1.00D-01 BMatC= 1.00D-11 BMatP= 8.70D-11
 IDIUse=1 WtCom= 1.00D+00 WtEn= 0.00D+00
 Coeff-Com:  0.160D-03 0.268D-02-0.346D-02-0.337D-01-0.433D-01-0.897D-01
 Coeff-Com: -0.159D-01 0.118D+01
 Coeff:      0.160D-03 0.268D-02-0.346D-02-0.337D-01-0.433D-01-0.897D-01
 Coeff:     -0.159D-01 0.118D+01
 Gap=     0.191 Goal=   None    Shift=    0.000
 Gap=     0.247 Goal=   None    Shift=    0.000
 RMSDP=9.23D-08 MaxDP=1.29D-06 DE=-7.19D-11 OVMax= 4.29D-06

 Cycle  18  Pass 1  IDiag  1:
 E= -165.223587573618     Delta-E=       -0.000000000017 Rises=F Damp=F
 DIIS: error= 1.38D-07 at cycle   9 NSaved=   9.
 NSaved= 9 IEnMin= 9 EnMin= -165.223587573618     IErMin= 9 ErrMin= 1.38D-07
 ErrMax= 1.38D-07 EMaxC= 1.00D-01 BMatC= 1.65D-12 BMatP= 1.00D-11
 IDIUse=1 WtCom= 1.00D+00 WtEn= 0.00D+00
 Coeff-Com: -0.328D-04 0.417D-03 0.144D-02 0.887D-02 0.692D-02-0.117D-01
 Coeff-Com: -0.145D+00-0.102D-01 0.115D+01
 Coeff:     -0.328D-04 0.417D-03 0.144D-02 0.887D-02 0.692D-02-0.117D-01
 Coeff:     -0.145D+00-0.102D-01 0.115D+01
 Gap=     0.191 Goal=   None    Shift=    0.000
 Gap=     0.247 Goal=   None    Shift=    0.000
 RMSDP=3.48D-08 MaxDP=4.86D-07 DE=-1.73D-11 OVMax= 1.59D-06

 Cycle  19  Pass 1  IDiag  1:
 E= -165.223587573620     Delta-E=       -0.000000000002 Rises=F Damp=F
 DIIS: error= 5.38D-08 at cycle  10 NSaved=  10.
 NSaved=10 IEnMin=10 EnMin= -165.223587573620     IErMin=10 ErrMin= 5.38D-08
 ErrMax= 5.38D-08 EMaxC= 1.00D-01 BMatC= 2.21D-13 BMatP= 1.65D-12
 IDIUse=1 WtCom= 1.00D+00 WtEn= 0.00D+00
 Coeff-Com: -0.201D-04-0.406D-03 0.485D-03 0.482D-02 0.550D-02 0.127D-01
 Coeff-Com:  0.278D-01-0.191D+00-0.192D+00 0.133D+01
 Coeff:     -0.201D-04-0.406D-03 0.485D-03 0.482D-02 0.550D-02 0.127D-01
 Coeff:      0.278D-01-0.191D+00-0.192D+00 0.133D+01
 Gap=     0.191 Goal=   None    Shift=    0.000
 Gap=     0.247 Goal=   None    Shift=    0.000
 RMSDP=1.49D-08 MaxDP=1.67D-07 DE=-2.13D-12 OVMax= 6.47D-07

 Cycle  20  Pass 1  IDiag  1:
 E= -165.223587573621     Delta-E=       -0.000000000001 Rises=F Damp=F
 DIIS: error= 2.33D-08 at cycle  11 NSaved=  11.
 NSaved=11 IEnMin=11 EnMin= -165.223587573621     IErMin=11 ErrMin= 2.33D-08
 ErrMax= 2.33D-08 EMaxC= 1.00D-01 BMatC= 3.20D-14 BMatP= 2.21D-13
 IDIUse=1 WtCom= 1.00D+00 WtEn= 0.00D+00
 Coeff-Com:  0.220D-05-0.862D-04-0.123D-03-0.105D-02-0.440D-03 0.156D-02
 Coeff-Com:  0.246D-01-0.165D-01-0.155D+00 0.104D+00 0.104D+01
 Coeff:      0.220D-05-0.862D-04-0.123D-03-0.105D-02-0.440D-03 0.156D-02
 Coeff:      0.246D-01-0.165D-01-0.155D+00 0.104D+00 0.104D+01
 Gap=     0.191 Goal=   None    Shift=    0.000
 Gap=     0.247 Goal=   None    Shift=    0.000
 RMSDP=3.80D-09 MaxDP=5.67D-08 DE=-5.97D-13 OVMax= 1.82D-07

 SCF Done:  E(UM06) =  -165.223587574     A.U. after   20 cycles
             Convg  =    0.3799D-08             -V/T =  2.0019
 <Sx>= 0.0000 <Sy>= 0.0000 <Sz>= 0.5000 <S**2>= 0.7577 S= 0.5039
 <L.S>=  0.00000000000    
 KE= 1.649041348575D+02 PE=-5.194326794526D+02 EE= 1.228042765179D+02
 Annihilation of the first spin contaminant:
 S**2 before annihilation     0.7577,   after     0.7500
 Leave Link  502 at Tue Apr 29 14:51:50 2014, MaxMem=   65536000 cpu:      17.1
 (Enter /apps/gaussian/g09/l801.exe)
 Range of M.O.s used for correlation:     1    66
 NBasis=    66 NAE=    12 NBE=    11 NFC=     0 NFV=     0
 NROrb=     66 NOA=    12 NOB=    11 NVA=    54 NVB=    55

 **** Warning!!: The largest alpha MO coefficient is  0.10411637D+02


 **** Warning!!: The largest beta MO coefficient is  0.10446319D+02

 Leave Link  801 at Tue Apr 29 14:51:50 2014, MaxMem=   65536000 cpu:       0.1
 (Enter /apps/gaussian/g09/l1101.exe)
 Using compressed storage, NAtomX=     5.
 Will process   6 centers per pass.
 Leave Link 1101 at Tue Apr 29 14:51:50 2014, MaxMem=   65536000 cpu:       1.4
 (Enter /apps/gaussian/g09/l1102.exe)
 Symmetrizing basis deriv contribution to polar:
 IMax=3 JMax=2 DiffMx= 0.00D+00
 Leave Link 1102 at Tue Apr 29 14:51:50 2014, MaxMem=   65536000 cpu:       0.2
 (Enter /apps/gaussian/g09/l1110.exe)
 Forming Gx(P) for the SCF density, NAtomX=     5.
 Integral derivatives from FoFDir/FoFCou, PRISM(SPDF).
 Do as many integral derivatives as possible in FoFDir.
 G2DrvN: MDV=      65535856.
 G2DrvN: will do     6 centers at a time, making    1 passes doing MaxLOS=2.
 Calling FoFCou, ICntrl=  3107 FMM=F I1Cent=   0 AccDes= 0.00D+00.
 FoFCou: FMM=F IPFlag=           0 FMFlag=      100000 FMFlg1=           0
         NFxFlg=           0 DoJE=F BraDBF=F KetDBF=F FulRan=T
         Omega=  0.000000  0.000000  1.000000  0.000000  0.000000 ICntrl=    3107 IOpCl=  1
         NMat0=    1 NMatS0=    1 NMatT0=    0 NMatD0=    1 NMtDS0=    0 NMtDT0=    0
         I1Cent=           0 NGrid=           0.
 Symmetry not used in FoFCou.
 FoFDir/FoFCou used for L=0 through L=2.
 End of G2Drv Frequency-dependent properties file   721 does not exist.
 End of G2Drv Frequency-dependent properties file   722 does not exist.
 Leave Link 1110 at Tue Apr 29 14:51:52 2014, MaxMem=   65536000 cpu:      16.6
 (Enter /apps/gaussian/g09/l1002.exe)
 Minotr:  UHF open shell wavefunction.
          IDoAtm=11111
          Direct CPHF calculation.
          Differentiating once with respect to electric field.
                with respect to dipole field.
          Differentiating once with respect to nuclear coordinates.
          Requested convergence is 1.0D-08 RMS, and 1.0D-07 maximum.
          Secondary convergence is 1.0D-12 RMS, and 1.0D-12 maximum.
          NewPWx=T KeepS1=F KeepF1=F KeepIn=T MapXYZ=F SortEE=F KeepMc=T.
          MDV=      65535946 using IRadAn=       2.
 Generate precomputed XC quadrature information.
          Keep R1 and R2 ints in memory in canonical form, NReq=6656460.
 Symmetry not used in FoFDir.
 MinBra= 0 MaxBra= 2 Meth= 1.
 IRaf=       0 NMat=   1 IRICut=       1 DoRegI=T DoRafI=F ISym2E= 0 JSym2E=0.
          Solving linear equations simultaneously, MaxMat=       0.
          There are    18 degrees of freedom in the 1st order CPHF.  IDoFFX=5.
     15 vectors produced by pass  0 Test12= 6.96D-15 5.56D-09 XBig12= 1.63D+02 5.46D+00.
 AX will form    15 AO Fock derivatives at one time.
     15 vectors produced by pass  1 Test12= 6.96D-15 5.56D-09 XBig12= 6.71D+01 1.39D+00.
     15 vectors produced by pass  2 Test12= 6.96D-15 5.56D-09 XBig12= 1.12D+00 2.22D-01.
     15 vectors produced by pass  3 Test12= 6.96D-15 5.56D-09 XBig12= 2.10D-02 3.66D-02.
     15 vectors produced by pass  4 Test12= 6.96D-15 5.56D-09 XBig12= 3.22D-04 3.10D-03.
     15 vectors produced by pass  5 Test12= 6.96D-15 5.56D-09 XBig12= 3.44D-06 5.03D-04.
     13 vectors produced by pass  6 Test12= 6.96D-15 5.56D-09 XBig12= 2.06D-08 2.05D-05.
      6 vectors produced by pass  7 Test12= 6.96D-15 5.56D-09 XBig12= 5.69D-11 1.20D-06.
      2 vectors produced by pass  8 Test12= 6.96D-15 5.56D-09 XBig12= 1.40D-13 7.23D-08.
 Inverted reduced A of dimension   111 with in-core refinement.
 FullF1:  Do perturbations    1 to     3.
 Isotropic polarizability for W=    0.000000       26.93 Bohr**3.
 End of Minotr Frequency-dependent properties file   721 does not exist.
 End of Minotr Frequency-dependent properties file   722 does not exist.
 Leave Link 1002 at Tue Apr 29 14:51:54 2014, MaxMem=   65536000 cpu:      23.0
 (Enter /apps/gaussian/g09/l601.exe)
 Copying SCF densities to generalized density rwf, IOpCl= 1 IROHF=0.

 **********************************************************************

            Population analysis using the SCF density.

 **********************************************************************

 Orbital symmetries:
 Alpha Orbitals:
       Occupied  (A) (A) (A) (A) (A) (A) (A) (A) (A) (A) (A) (A)
       Virtual   (A) (A) (A) (A) (A) (A) (A) (A) (A) (A) (A) (A)
                 (A) (A) (A) (A) (A) (A) (A) (A) (A) (A) (A) (A)
                 (A) (A) (A) (A) (A) (A) (A) (A) (A) (A) (A) (A)
                 (A) (A) (A) (A) (A) (A) (A) (A) (A) (A) (A) (A)
                 (A) (A) (A) (A) (A) (A)
 Beta  Orbitals:
       Occupied  (A) (A) (A) (A) (A) (A) (A) (A) (A) (A) (A)
       Virtual   (A) (A) (A) (A) (A) (A) (A) (A) (A) (A) (A) (A)
                 (A) (A) (A) (A) (A) (A) (A) (A) (A) (A) (A) (A)
                 (A) (A) (A) (A) (A) (A) (A) (A) (A) (A) (A) (A)
                 (A) (A) (A) (A) (A) (A) (A) (A) (A) (A) (A) (A)
                 (A) (A) (A) (A) (A) (A) (A)
 The electronic state is 2-A.
 Alpha  occ. eigenvalues --  -14.57206 -14.47242 -14.45320  -1.17693  -1.00947
 Alpha  occ. eigenvalues --   -0.65404  -0.55753  -0.54647  -0.48113  -0.38390
 Alpha  occ. eigenvalues --   -0.32192  -0.22844
 Alpha virt. eigenvalues --   -0.03694   0.00792   0.03801   0.22521   0.25822
 Alpha virt. eigenvalues --    0.36625   0.41968   0.45486   0.50125   0.52733
 Alpha virt. eigenvalues --    0.60336   0.64547   0.67517   0.68890   0.74273
 Alpha virt. eigenvalues --    0.77118   0.92087   1.02475   1.11742   1.22042
 Alpha virt. eigenvalues --    1.35371   1.38971   1.45313   1.49614   1.64569
 Alpha virt. eigenvalues --    1.65746   1.70347   1.81477   1.85011   2.07582
 Alpha virt. eigenvalues --    2.10272   2.17251   2.24086   2.34631   2.38923
 Alpha virt. eigenvalues --    2.44367   2.47283   2.66225   2.85215   3.02353
 Alpha virt. eigenvalues --    3.18037   3.48959   3.51282   3.63035   3.87821
 Alpha virt. eigenvalues --    3.90200   3.90778   4.08426   4.27544   4.36621
 Alpha virt. eigenvalues --    5.02846  34.96310  35.47071  36.17578
  Beta  occ. eigenvalues --  -14.57192 -14.46995 -14.45179  -1.17260  -1.00501
  Beta  occ. eigenvalues --   -0.65258  -0.54780  -0.54478  -0.47375  -0.36376
  Beta  occ. eigenvalues --   -0.31119
  Beta virt. eigenvalues --   -0.06428  -0.02474   0.02092   0.05028   0.22932
  Beta virt. eigenvalues --    0.36350   0.39427   0.41840   0.45642   0.50137
  Beta virt. eigenvalues --    0.53765   0.60544   0.65078   0.67817   0.68916
  Beta virt. eigenvalues --    0.74374   0.77924   0.92523   1.03139   1.12171
  Beta virt. eigenvalues --    1.22805   1.40570   1.45625   1.46450   1.51655
  Beta virt. eigenvalues --    1.65138   1.66287   1.70892   1.84076   1.88694
  Beta virt. eigenvalues --    2.08217   2.10983   2.20883   2.25020   2.37977
  Beta virt. eigenvalues --    2.39280   2.47395   2.64303   2.67436   2.85240
  Beta virt. eigenvalues --    3.03044   3.18335   3.48810   3.51523   3.63399
  Beta virt. eigenvalues --    3.87685   3.90662   3.91461   4.08357   4.27364
  Beta virt. eigenvalues --    4.36744   5.02823  34.96556  35.47295  36.17798
     Alpha Molecular Orbital Coefficients:
                           1         2         3         4         5
                           O         O         O         O         O
     Eigenvalues --   -14.57206 -14.47242 -14.45320  -1.17693  -1.00947
   1 1   N  1S          0.55747  -0.00326  -0.00113  -0.10543  -0.00628
   2        2S          0.46461  -0.00207  -0.00067  -0.16352  -0.01028
   3        2PX        -0.00023   0.00104  -0.00078   0.03219  -0.17915
   4        2PY         0.00020   0.00017  -0.00002   0.01403  -0.02049
   5        2PZ        -0.00015   0.00002  -0.00007  -0.00323  -0.00740
   6        3S          0.01836  -0.00284  -0.00092   0.46419   0.03475
   7        3PX         0.00236  -0.00578   0.00287   0.03194  -0.23738
   8        3PY         0.00084  -0.00101   0.00006   0.01669  -0.02650
   9        3PZ        -0.00014  -0.00010   0.00026  -0.00462  -0.00988
  10        4S         -0.00340   0.00346   0.00197   0.21117   0.02700
  11        4PX         0.00051   0.00785  -0.00816  -0.00590  -0.06856
  12        4PY        -0.00016   0.00097  -0.00034   0.00308  -0.01084
  13        4PZ         0.00008   0.00035  -0.00039  -0.00131  -0.00167
  14        5D 0       -0.00238   0.00137   0.00070  -0.01211  -0.00133
  15        5D+1        0.00040  -0.00002  -0.00035   0.00188   0.00120
  16        5D-1        0.00003  -0.00001   0.00001  -0.00066  -0.00017
  17        5D+2        0.00398  -0.00219  -0.00128   0.01959   0.00276
  18        5D-2        0.00097  -0.00094   0.00006   0.00491  -0.00213
  19 2   N  1S          0.00304   0.55743   0.00054  -0.06745   0.06523
  20        2S          0.00331   0.46514   0.00047  -0.10383   0.10165
  21        2PX        -0.00079  -0.00179  -0.00008  -0.08193   0.06893
  22        2PY        -0.00018  -0.00037   0.00003  -0.01543   0.01563
  23        2PZ         0.00001  -0.00001  -0.00003  -0.00110  -0.00011
  24        3S         -0.00320   0.01695  -0.00003   0.28963  -0.28719
  25        3PX         0.00556  -0.00411   0.00010  -0.10845   0.08943
  26        3PY         0.00121  -0.00078  -0.00014  -0.01994   0.02121
  27        3PZ        -0.00001  -0.00004   0.00011  -0.00166  -0.00053
  28        4S         -0.00105  -0.01190   0.00540   0.11384  -0.13767
  29        4PX        -0.00027   0.00403  -0.00177  -0.02237   0.02469
  30        4PY         0.00003   0.00096  -0.00065  -0.00539   0.00601
  31        4PZ        -0.00003  -0.00005  -0.00001   0.00018  -0.00029
  32        5D 0        0.00158  -0.00126   0.00004  -0.00881   0.00796
  33        5D+1        0.00003   0.00006  -0.00008   0.00047   0.00026
  34        5D-1        0.00001   0.00001  -0.00002  -0.00019   0.00025
  35        5D+2       -0.00247   0.00201  -0.00014   0.01348  -0.01134
  36        5D-2       -0.00116   0.00078   0.00015   0.00525  -0.00622
  37 3   N  1S          0.00105  -0.00054   0.55759  -0.04629  -0.08510
  38        2S          0.00124  -0.00043   0.46504  -0.07129  -0.13236
  39        2PX         0.00089   0.00013   0.00136   0.04742   0.05968
  40        2PY         0.00007   0.00006  -0.00069  -0.00392  -0.01540
  41        2PZ         0.00001  -0.00003   0.00093   0.01068   0.02394
  42        3S         -0.00102  -0.00003   0.01676   0.19806   0.37141
  43        3PX        -0.00379  -0.00028   0.00061   0.06932   0.09377
  44        3PY        -0.00037  -0.00019  -0.00073  -0.00442  -0.02235
  45        3PZ         0.00002   0.00009   0.00105   0.01460   0.03489
  46        4S          0.00044   0.00397  -0.01257   0.07549   0.20795
  47        4PX         0.00097   0.00181  -0.00338   0.00182   0.02222
  48        4PY         0.00009  -0.00001  -0.00010  -0.00534  -0.00668
  49        4PZ         0.00004   0.00012  -0.00104   0.00712   0.01470
  50        5D 0        0.00103   0.00007  -0.00051  -0.00478  -0.00768
  51        5D+1       -0.00068   0.00005  -0.00022   0.00238   0.00465
  52        5D-1       -0.00022  -0.00000  -0.00053  -0.00154  -0.00374
  53        5D+2       -0.00190  -0.00011   0.00080   0.00837   0.01360
  54        5D-2        0.00035  -0.00016   0.00049   0.00001  -0.00173
  55 4   H  1S         -0.00031  -0.00002  -0.00006   0.02118   0.05590
  56        2S         -0.00077   0.00002  -0.00139   0.01884   0.05297
  57        3S          0.00071   0.00044   0.00138  -0.01172  -0.00932
  58        4PX        -0.00019   0.00011  -0.00076   0.00457   0.00916
  59        4PY        -0.00051   0.00001  -0.00129   0.00341   0.00896
  60        4PZ         0.00047   0.00000   0.00132  -0.00290  -0.00821
  61 5   H  1S          0.00008   0.00003  -0.00011   0.00147   0.00504
  62        2S         -0.00022  -0.00012   0.00047   0.00373   0.00464
  63        3S          0.00025   0.00015   0.00022  -0.00286  -0.00035
  64        4PX        -0.00001  -0.00001   0.00030   0.00018  -0.00026
  65        4PY         0.00000  -0.00001  -0.00031  -0.00012  -0.00038
  66        4PZ        -0.00001  -0.00000  -0.00004  -0.00005  -0.00003
                           6         7         8         9        10
                           O         O         O         O         O
     Eigenvalues --    -0.65404  -0.55753  -0.54647  -0.48113  -0.38390
   1 1   N  1S          0.04186   0.02491  -0.01875   0.02765   0.00646
   2        2S          0.06677   0.04023  -0.03020   0.04466   0.01060
   3        2PX         0.09527  -0.00881  -0.02698  -0.12002   0.02712
   4        2PY        -0.03318   0.21086   0.02894  -0.04421  -0.06406
   5        2PZ         0.05368  -0.00785   0.21580   0.02548   0.03602
   6        3S         -0.20756  -0.12379   0.09334  -0.14225  -0.03678
   7        3PX         0.13220  -0.01592  -0.03997  -0.16254   0.03495
   8        3PY        -0.05259   0.32515   0.04529  -0.06428  -0.09748
   9        3PZ         0.08270  -0.01129   0.33205   0.03914   0.05546
  10        4S         -0.21207  -0.13505   0.09997  -0.16710  -0.01623
  11        4PX         0.07366   0.01394  -0.03090  -0.12919   0.12381
  12        4PY        -0.03414   0.22582   0.02507  -0.05437  -0.06911
  13        4PZ         0.04737  -0.01491   0.23340   0.03387   0.04343
  14        5D 0       -0.00142  -0.00019  -0.00239  -0.00028   0.00166
  15        5D+1       -0.00581  -0.00103   0.00538   0.00382   0.01730
  16        5D-1        0.00119  -0.00147   0.00391   0.00109   0.00153
  17        5D+2        0.00210  -0.00758   0.00009   0.00224   0.00683
  18        5D-2        0.00607   0.00183  -0.00031  -0.00227  -0.03587
  19 2   N  1S         -0.03125  -0.02122   0.01775  -0.07527   0.00034
  20        2S         -0.04948  -0.03400   0.02837  -0.11988   0.00032
  21        2PX         0.00562  -0.00278  -0.02594   0.20900   0.02547
  22        2PY        -0.01933   0.12752   0.01685   0.02128  -0.13516
  23        2PZ         0.02071  -0.00428   0.13250   0.02567   0.06228
  24        3S          0.14392   0.10105  -0.08367   0.34074   0.00004
  25        3PX         0.00990  -0.00947  -0.03555   0.28204   0.03910
  26        3PY        -0.03068   0.19658   0.02713   0.02566  -0.20341
  27        3PZ         0.03320  -0.00670   0.20519   0.03869   0.09344
  28        4S          0.13305   0.08883  -0.09225   0.58375  -0.08361
  29        4PX        -0.00105   0.00406  -0.02061   0.14379   0.06361
  30        4PY        -0.01089   0.10361   0.01494   0.00912  -0.16133
  31        4PZ         0.01212  -0.00152   0.10817   0.02447   0.07959
  32        5D 0       -0.00027   0.00081  -0.00154   0.01279  -0.00093
  33        5D+1       -0.00691   0.00108  -0.03372  -0.00522  -0.01008
  34        5D-1       -0.00145  -0.00020  -0.00654  -0.00180  -0.00191
  35        5D+2       -0.00263   0.01071   0.00437  -0.02326  -0.00700
  36        5D-2        0.00603  -0.03097  -0.00428  -0.00489   0.02011
  37 3   N  1S         -0.04613  -0.02800   0.02488   0.00265  -0.02786
  38        2S         -0.07263  -0.04472   0.03967   0.00416  -0.04449
  39        2PX        -0.15530  -0.04183   0.03169   0.06820  -0.04258
  40        2PY        -0.07725   0.09995   0.02190  -0.00420   0.15190
  41        2PZ         0.06662  -0.00102   0.09722   0.00437  -0.07731
  42        3S          0.20074   0.13037  -0.11610  -0.00757   0.12448
  43        3PX        -0.22396  -0.05581   0.04180   0.10098  -0.05955
  44        3PY        -0.11518   0.15516   0.03464  -0.00822   0.22152
  45        3PZ         0.10096   0.00091   0.15124   0.00746  -0.10897
  46        4S          0.25863   0.17353  -0.13743  -0.05580   0.30237
  47        4PX        -0.07786  -0.03385   0.02849   0.05719  -0.02985
  48        4PY        -0.05394   0.08806   0.02568  -0.00047   0.20038
  49        4PZ         0.05419   0.00988   0.08582  -0.00165  -0.08148
  50        5D 0        0.01139   0.00247   0.00883  -0.00283  -0.00082
  51        5D+1       -0.00479  -0.00363   0.02689   0.00803  -0.00473
  52        5D-1       -0.01261   0.00614  -0.00106   0.00077   0.01228
  53        5D+2       -0.02000   0.00074   0.00118   0.00678   0.00054
  54        5D-2        0.00193   0.02598   0.00184  -0.00694   0.00383
  55 4   H  1S          0.15978  -0.00232  -0.00798  -0.02934  -0.08744
  56        2S          0.19467  -0.01378  -0.00529  -0.03853  -0.15189
  57        3S          0.03626  -0.00034  -0.00420  -0.01491  -0.04937
  58        4PX         0.00520  -0.00678   0.00406   0.00344  -0.01577
  59        4PY         0.01473   0.00540   0.00247  -0.00211   0.00034
  60        4PZ        -0.01366   0.00191   0.00768   0.00175   0.00504
  61 5   H  1S          0.01405   0.03203  -0.00375  -0.01288   0.11242
  62        2S          0.01902   0.04493  -0.00712  -0.02304   0.18032
  63        3S          0.01031   0.02511  -0.00421  -0.01089   0.15294
  64        4PX        -0.00040   0.00179   0.00015  -0.00052   0.00086
  65        4PY        -0.00263  -0.00145   0.00101   0.00126  -0.00206
  66        4PZ         0.00031  -0.00011   0.00142   0.00016  -0.00071
                          11        12        13        14        15
                           O         O         V         V         V
     Eigenvalues --    -0.32192  -0.22844  -0.03694   0.00792   0.03801
   1 1   N  1S         -0.00592  -0.00846   0.00476   0.00230  -0.00906
   2        2S         -0.00972  -0.01382   0.00718   0.00373  -0.01464
   3        2PX        -0.01864  -0.01495  -0.01415  -0.02754  -0.01031
   4        2PY        -0.00694  -0.05657   0.14859   0.15505  -0.03510
   5        2PZ        -0.02538  -0.01223  -0.15323   0.17189   0.02164
   6        3S          0.03288   0.04024  -0.00271  -0.00965   0.02638
   7        3PX        -0.02722  -0.01869  -0.03782  -0.04507  -0.04577
   8        3PY        -0.00843  -0.08698   0.22806   0.24018  -0.05341
   9        3PZ        -0.03749  -0.01938  -0.23746   0.26612   0.03232
  10        4S          0.01857   0.06664  -0.20514  -0.05546   0.14981
  11        4PX        -0.00011  -0.03624   0.13773  -0.05919   0.31242
  12        4PY        -0.01109  -0.10761   0.34072   0.37322  -0.08090
  13        4PZ        -0.02833  -0.02292  -0.33003   0.41579   0.08452
  14        5D 0       -0.00368   0.00205  -0.00099   0.00053   0.01346
  15        5D+1       -0.04779   0.00693   0.02127  -0.00736   0.00192
  16        5D-1       -0.00631   0.00289   0.00211  -0.00208  -0.00518
  17        5D+2        0.00480  -0.01223   0.00820   0.00507  -0.02169
  18        5D-2       -0.01779   0.03291  -0.01492  -0.00297  -0.01188
  19 2   N  1S          0.00022   0.00232  -0.00231  -0.00094   0.01310
  20        2S          0.00039   0.00403  -0.00414  -0.00157   0.02182
  21        2PX         0.02507  -0.00990   0.01249   0.02040   0.03787
  22        2PY        -0.05964   0.12815  -0.14495  -0.12684   0.04117
  23        2PZ        -0.16023   0.02298   0.15455  -0.14524  -0.02502
  24        3S         -0.00276  -0.01804   0.01909   0.00608  -0.09269
  25        3PX         0.03590  -0.01460   0.01465   0.02838   0.05565
  26        3PY        -0.08909   0.18857  -0.20879  -0.18022   0.06237
  27        3PZ        -0.23889   0.03314   0.22087  -0.20541  -0.03808
  28        4S          0.00236   0.02939  -0.10039   0.00372  -0.28590
  29        4PX         0.03252  -0.03984   0.08072   0.05786   0.13998
  30        4PY        -0.08450   0.22331  -0.32837  -0.33105   0.12334
  31        4PZ        -0.22995   0.04230   0.36596  -0.38134  -0.06504
  32        5D 0        0.00071   0.00092  -0.00107   0.00015  -0.00113
  33        5D+1        0.01898  -0.00105   0.00554  -0.00956  -0.00043
  34        5D-1        0.00394  -0.00014   0.00109  -0.00212  -0.00106
  35        5D+2       -0.00384   0.00111   0.00414   0.00394   0.00189
  36        5D-2        0.00572  -0.00772  -0.00494  -0.00865   0.00162
  37 3   N  1S          0.02482   0.03093   0.02159   0.00506   0.03523
  38        2S          0.03985   0.04979   0.03424   0.00805   0.05564
  39        2PX         0.02189   0.03308   0.07685   0.03012  -0.00528
  40        2PY         0.07477  -0.11262  -0.05282  -0.11987   0.11567
  41        2PZ         0.20182  -0.02901   0.04060  -0.11701  -0.07850
  42        3S         -0.12038  -0.15390  -0.08503  -0.02036  -0.15061
  43        3PX         0.02872   0.03841   0.11004   0.04133  -0.05255
  44        3PY         0.11144  -0.16407  -0.07321  -0.16864   0.14698
  45        3PZ         0.29577  -0.04802   0.04870  -0.16200  -0.09922
  46        4S         -0.16095  -0.26870  -0.24586  -0.09152  -0.56525
  47        4PX         0.03631   0.06140   0.24387   0.08143   0.26426
  48        4PY         0.13007  -0.19907  -0.09671  -0.31128   0.37782
  49        4PZ         0.32449  -0.04446   0.09300  -0.32076  -0.25252
  50        5D 0        0.01262  -0.00968  -0.00343  -0.00681  -0.00026
  51        5D+1        0.01473  -0.00195  -0.01699   0.01638  -0.00534
  52        5D-1       -0.00386  -0.00323  -0.00645   0.00089   0.00139
  53        5D+2        0.00374  -0.00351   0.00064  -0.00653   0.00406
  54        5D-2        0.00386  -0.02273   0.01571   0.00993   0.00929
  55 4   H  1S          0.03007   0.00468   0.08881  -0.00103   0.04343
  56        2S          0.04260  -0.00015   0.19432  -0.00771  -0.05232
  57        3S          0.01834   0.02747   0.33659   0.08595   1.55595
  58        4PX         0.00564   0.00435  -0.00180   0.00341  -0.01885
  59        4PY         0.01110  -0.00912  -0.00435  -0.01735  -0.01603
  60        4PZ         0.01615  -0.00350   0.00203  -0.01567   0.01761
  61 5   H  1S          0.07269   0.20211   0.03269   0.03185  -0.03442
  62        2S          0.11436   0.37947   0.06404   0.05613  -0.07466
  63        3S          0.10870   0.45055   0.10716   0.19364  -0.20926
  64        4PX        -0.00105  -0.00436  -0.00279  -0.00149  -0.00067
  65        4PY         0.00254   0.00492   0.00717   0.00720  -0.00434
  66        4PZ         0.00452   0.00265   0.00462  -0.00199  -0.00075
                          16        17        18        19        20
                           V         V         V         V         V
     Eigenvalues --     0.22521   0.25822   0.36625   0.41968   0.45486
   1 1   N  1S         -0.06568   0.02736  -0.00066   0.00881   0.04808
   2        2S         -0.10666   0.04588   0.00117   0.01931   0.09087
   3        2PX        -0.07342   0.03654   0.03730   0.14972  -0.05827
   4        2PY         0.03078  -0.04734  -0.04518   0.04776   0.03150
   5        2PZ        -0.02899   0.00040   0.05170  -0.02383  -0.02363
   6        3S          0.25414  -0.16010  -0.07422  -0.22170  -0.65727
   7        3PX        -0.12021   0.03438   0.09979   0.23679  -0.05232
   8        3PY         0.04763  -0.08686  -0.08355   0.09737   0.10787
   9        3PZ        -0.03955  -0.00568   0.08650  -0.08015  -0.06165
  10        4S          2.57617  -0.83833   0.25982   1.27804  -1.87248
  11        4PX        -0.42660   0.44884   0.03896   5.02287  -1.68461
  12        4PY         0.21782  -0.03291  -0.24856   0.59592  -0.43663
  13        4PZ        -0.17092   0.09586   0.29013   0.26739   0.06692
  14        5D 0        0.03098  -0.01120   0.00717   0.00693   0.00536
  15        5D+1       -0.00886  -0.00105   0.02011  -0.00549  -0.00948
  16        5D-1        0.00127   0.00034  -0.02118   0.00888  -0.00060
  17        5D+2       -0.05302   0.01605  -0.00898  -0.01284  -0.01160
  18        5D-2       -0.01407  -0.00788  -0.01626   0.00567   0.00825
  19 2   N  1S          0.04395  -0.00838   0.01229   0.04567   0.00316
  20        2S          0.07464  -0.01342   0.02167   0.07781   0.01639
  21        2PX         0.14515  -0.03968   0.03053   0.01862   0.06531
  22        2PY        -0.00238  -0.00544   0.00343  -0.00665   0.00559
  23        2PZ         0.01951  -0.00125  -0.00117  -0.00281   0.00977
  24        3S         -0.30101   0.03328  -0.09548  -0.25301  -0.32976
  25        3PX         0.21776  -0.04121   0.05740   0.03601   0.33276
  26        3PY        -0.00035  -0.03392  -0.03807  -0.01863   0.07614
  27        3PZ         0.02639   0.00062   0.04126  -0.02132   0.01578
  28        4S         -0.57737  -0.00413  -0.11388  -4.87605   2.81187
  29        4PX         0.58217  -0.15012   0.11513   2.68724  -2.13592
  30        4PY        -0.02981   0.09122   0.22649   0.64874  -0.45650
  31        4PZ         0.09102  -0.03514  -0.21211   0.00671  -0.02904
  32        5D 0       -0.00103  -0.00089  -0.00059   0.00238   0.01998
  33        5D+1        0.00369   0.00054  -0.01042   0.00781   0.00804
  34        5D-1        0.00154   0.00058  -0.00481   0.00228   0.00023
  35        5D+2        0.00467  -0.00570  -0.00462  -0.00036  -0.02606
  36        5D-2       -0.00491   0.00692   0.00988  -0.00816  -0.02814
  37 3   N  1S          0.04549  -0.01667   0.02411  -0.01652   0.01072
  38        2S          0.07538  -0.02789   0.04295  -0.02064   0.02417
  39        2PX        -0.20505   0.05110   0.03441  -0.05247  -0.08592
  40        2PY        -0.02656   0.02492   0.07426  -0.03814  -0.04026
  41        2PZ         0.00810   0.01616  -0.09341   0.00305   0.02716
  42        3S         -0.23709   0.10621  -0.17571  -0.15744  -0.20804
  43        3PX        -0.30889   0.04916   0.02091  -0.25556  -0.38875
  44        3PY        -0.01868   0.07029   0.13843  -0.08552  -0.11093
  45        3PZ         0.00691   0.02985  -0.20272  -0.00204   0.07177
  46        4S         -1.21642   0.38429  -0.47196   4.28636  -0.44641
  47        4PX        -1.12303   0.65617   0.61755   2.50045   0.36709
  48        4PY        -0.16753  -0.15540   0.74045  -0.42966   0.25043
  49        4PZ        -0.06277  -0.01629  -0.61252   0.65490  -0.16649
  50        5D 0       -0.00561   0.01580  -0.00135   0.00883   0.01431
  51        5D+1       -0.00661   0.00628  -0.00705  -0.01494  -0.00485
  52        5D-1        0.00270  -0.00229  -0.01369  -0.00566   0.00541
  53        5D+2        0.01622  -0.00213  -0.00929  -0.02663  -0.03137
  54        5D-2        0.01602   0.00171   0.00593   0.00891   0.00128
  55 4   H  1S          0.01540  -0.00955   0.12785  -0.02795  -0.01473
  56        2S          0.16314   0.07384   1.96524  -0.81888  -0.02508
  57        3S         -0.59815  -0.15928  -0.90656   0.35901   0.04758
  58        4PX        -0.02747   0.00063   0.03207  -0.00913   0.03358
  59        4PY         0.02006   0.02527  -0.00544  -0.02952   0.00378
  60        4PZ        -0.01423   0.00988   0.00111   0.02150  -0.00786
  61 5   H  1S         -0.03510  -0.11502   0.01716  -0.00037   0.00674
  62        2S         -0.37301  -1.22594   0.10512   0.10494   0.11604
  63        3S          0.47801   1.68630  -0.01031  -0.00646  -0.15000
  64        4PX        -0.00912   0.00657   0.02459   0.04328   0.03160
  65        4PY        -0.00324   0.00650   0.02806   0.00133   0.00070
  66        4PZ        -0.00363  -0.00072  -0.02592   0.02497  -0.00409
                          21        22        23        24        25
                           V         V         V         V         V
     Eigenvalues --     0.50125   0.52733   0.60336   0.64547   0.67517
   1 1   N  1S         -0.00614  -0.00080  -0.01609   0.03111   0.04006
   2        2S         -0.01173  -0.00131  -0.03146   0.06055   0.07755
   3        2PX        -0.01949   0.00831  -0.03592  -0.01853  -0.10303
   4        2PY        -0.04457  -0.10678  -0.00850  -0.07255   0.06063
   5        2PZ        -0.10702   0.02932   0.02536  -0.00782   0.01794
   6        3S          0.07541   0.00885   0.20991  -0.38264  -0.49057
   7        3PX        -0.02346   0.02808  -0.08883  -0.22363  -0.48489
   8        3PY        -0.16785  -0.45032  -0.03128  -0.25678   0.21432
   9        3PZ        -0.43524   0.13526   0.10240  -0.04264   0.04470
  10        4S         -0.31623  -0.14075  -0.75008   0.75840   0.46781
  11        4PX        -0.31077   0.29076   1.12780  -0.01760   1.41231
  12        4PY         0.17662   0.68110   0.26999   0.38032  -0.48678
  13        4PZ         0.51655  -0.20925  -0.30871   0.14863  -0.15661
  14        5D 0        0.00814   0.00769   0.01146   0.00076  -0.00535
  15        5D+1       -0.00352   0.00161   0.06638   0.01478   0.01812
  16        5D-1       -0.00626   0.00867   0.02161  -0.00590   0.00341
  17        5D+2        0.00045   0.00734  -0.01493   0.00247   0.01315
  18        5D-2       -0.00321  -0.01796   0.00414   0.04223  -0.04917
  19 2   N  1S         -0.00695   0.00256  -0.01531   0.04434   0.04899
  20        2S         -0.01229   0.00481  -0.02914   0.08560   0.09598
  21        2PX         0.01757   0.03151   0.02245  -0.12463  -0.12066
  22        2PY        -0.03667  -0.15238   0.03021   0.09671  -0.11881
  23        2PZ        -0.12617   0.05073   0.13176   0.01794  -0.00293
  24        3S          0.04718  -0.03941   0.17119  -0.61698  -0.74573
  25        3PX         0.06491   0.11395   0.09650  -0.40718  -0.31447
  26        3PY        -0.13341  -0.54247   0.11719   0.33353  -0.40533
  27        3PZ        -0.45640   0.17536   0.45951   0.07221  -0.00850
  28        4S          0.36895  -0.21406  -0.76534   0.49874  -0.06821
  29        4PX        -0.34207  -0.08282   0.03972   0.37312   0.21926
  30        4PY         0.07570   0.62748  -0.16894  -0.67646   0.84762
  31        4PZ         0.50014  -0.18536  -0.61608  -0.17571   0.05018
  32        5D 0       -0.00023  -0.00011  -0.00261   0.00299   0.01199
  33        5D+1        0.03390  -0.01040  -0.02537  -0.00500  -0.00449
  34        5D-1        0.00750  -0.00190  -0.00089  -0.00344   0.00155
  35        5D+2       -0.00442  -0.01356   0.00349  -0.00420  -0.02576
  36        5D-2        0.01163   0.03680  -0.00517  -0.01052   0.00263
  37 3   N  1S         -0.00510   0.00480  -0.01387  -0.00875  -0.01121
  38        2S         -0.00991   0.00955  -0.02471  -0.01730  -0.02051
  39        2PX        -0.01387  -0.00419  -0.05262   0.05987   0.02689
  40        2PY        -0.03008  -0.08505  -0.00343  -0.13041   0.07486
  41        2PZ        -0.12790   0.03913  -0.16475   0.00014  -0.03905
  42        3S          0.06353  -0.07690   0.07494   0.19482   0.14655
  43        3PX        -0.00980   0.00291  -0.11725   0.15581   0.06373
  44        3PY        -0.12374  -0.28361  -0.02644  -0.46355   0.24749
  45        3PZ        -0.44235   0.12177  -0.58074  -0.03967  -0.13481
  46        4S         -0.09134   0.31659   1.33787  -0.86085   0.79167
  47        4PX        -0.14819   0.12610   0.54041  -0.40745  -0.05162
  48        4PY         0.09616   0.16139  -0.35823   0.90468  -0.40291
  49        4PZ         0.45955  -0.00089   1.34209  -0.23525   0.43457
  50        5D 0       -0.01247   0.00032  -0.01626   0.01533  -0.00102
  51        5D+1       -0.02539   0.00925  -0.03652   0.00329  -0.01689
  52        5D-1       -0.00293   0.00449   0.00014   0.00066  -0.00140
  53        5D+2        0.01117  -0.00132   0.02269  -0.00997  -0.00523
  54        5D-2       -0.00209  -0.01969   0.01132  -0.03500   0.02692
  55 4   H  1S          0.00760  -0.02515   0.00177  -0.00876   0.01490
  56        2S          0.00248  -0.31884  -0.56768   0.35097  -0.12255
  57        3S         -0.16444   0.50592  -0.02900   0.28102  -0.32562
  58        4PX        -0.01977  -0.01378  -0.09977   0.03342  -0.04530
  59        4PY        -0.01322   0.01448  -0.01969   0.07292  -0.03094
  60        4PZ         0.00601  -0.02083   0.02730  -0.03073   0.00844
  61 5   H  1S          0.00237   0.01405  -0.00958   0.00763   0.01893
  62        2S         -0.03567   0.10769  -0.08842  -0.13665   0.03501
  63        3S         -0.04494  -0.34190   0.13108  -0.17660   0.08131
  64        4PX         0.00720   0.02764   0.00043   0.01875  -0.06599
  65        4PY         0.00220  -0.00718  -0.00882  -0.00157  -0.00172
  66        4PZ         0.02502   0.00419   0.08338  -0.01898   0.02445
                          26        27        28        29        30
                           V         V         V         V         V
     Eigenvalues --     0.68890   0.74273   0.77118   0.92087   1.02475
   1 1   N  1S         -0.00403  -0.01519  -0.04683   0.00121  -0.00116
   2        2S         -0.00781  -0.03015  -0.09150   0.00323  -0.00515
   3        2PX        -0.02559   0.00350  -0.11980   0.28478  -0.15826
   4        2PY        -0.07843   0.13640  -0.02687   0.02107   0.01676
   5        2PZ         0.16843   0.08680  -0.04313   0.00931  -0.02719
   6        3S          0.04785   0.22872   0.70857  -0.12315   0.09168
   7        3PX        -0.13628  -0.01120  -0.49679   0.25122  -0.45939
   8        3PY        -0.27436   0.46995  -0.09845   0.03479   0.07989
   9        3PZ         0.56961   0.29276  -0.15361  -0.02440  -0.10733
  10        4S         -0.50501  -0.06776  -1.68299   1.63442   0.61747
  11        4PX         2.00566  -0.68912   2.61879   2.58870  10.41164
  12        4PY         0.97801  -1.63107   0.18148   0.34432   0.72201
  13        4PZ        -1.46810  -0.75697   0.76232   0.19874   0.78131
  14        5D 0        0.00535  -0.01102   0.01147   0.00203  -0.00673
  15        5D+1       -0.01796  -0.00171  -0.00176   0.05427   0.03470
  16        5D-1        0.01915  -0.01892  -0.02340   0.00162   0.04222
  17        5D+2       -0.01389   0.00496  -0.02141   0.02412   0.01192
  18        5D-2       -0.00859   0.01705  -0.01921  -0.09437  -0.04958
  19 2   N  1S          0.00332  -0.01175  -0.00723   0.04062  -0.03664
  20        2S          0.00619  -0.02379  -0.01660   0.07427  -0.07418
  21        2PX        -0.00626   0.03985  -0.01309   0.22731  -0.02691
  22        2PY         0.04965  -0.04364   0.00827   0.06431   0.01900
  23        2PZ        -0.12800  -0.04800   0.00657  -0.00441  -0.01053
  24        3S         -0.06520   0.19909   0.07978  -0.39943   0.60602
  25        3PX         0.01853   0.07461  -0.09929   0.63326   0.22440
  26        3PY         0.18234  -0.18621   0.00083   0.14605   0.06444
  27        3PZ        -0.45396  -0.16871   0.04301   0.00703  -0.00198
  28        4S         -1.37259   0.49248  -1.40130  -2.50507  -9.19657
  29        4PX         0.44755  -0.33641   0.38854   0.51853   3.22719
  30        4PY        -0.37104   0.73020   0.16507   0.21235   1.06625
  31        4PZ         1.17506   0.49978  -0.31362  -0.10727  -0.22005
  32        5D 0        0.00189  -0.01557  -0.01726  -0.02898   0.02747
  33        5D+1        0.00377   0.00141  -0.00668  -0.02272  -0.03613
  34        5D-1        0.00539  -0.00404  -0.00883  -0.00535  -0.00584
  35        5D+2       -0.00275   0.01240   0.02366   0.03139  -0.07842
  36        5D-2       -0.00160   0.01032   0.02024   0.05876   0.03479
  37 3   N  1S         -0.00616  -0.01873  -0.05530  -0.06254   0.05601
  38        2S         -0.01003  -0.03766  -0.10879  -0.11834   0.11267
  39        2PX        -0.02111  -0.01966  -0.17856   0.18933   0.02934
  40        2PY         0.03537  -0.14569  -0.00088  -0.01114  -0.04236
  41        2PZ        -0.02461  -0.02370   0.06344   0.03899   0.02100
  42        3S         -0.02869   0.35320   0.84728   0.78918  -1.03651
  43        3PX        -0.08677  -0.00017  -0.37068   0.51158   0.25285
  44        3PY         0.10801  -0.50411   0.06792   0.02426  -0.19588
  45        3PZ        -0.06041  -0.15772   0.16853   0.04658   0.20603
  46        4S          1.87341  -1.54020   0.62876   0.61566   9.32757
  47        4PX         0.93180  -0.21424   1.95157  -0.06412   3.38956
  48        4PY        -0.71354   1.70236   0.30641  -0.16405  -0.38021
  49        4PZ         0.89966   0.02839  -0.73681   0.04316   0.68483
  50        5D 0       -0.00415   0.00247  -0.04509   0.02828  -0.03642
  51        5D+1       -0.01137   0.01618   0.03849  -0.03426  -0.06311
  52        5D-1        0.00088   0.00169   0.01460   0.01824   0.01819
  53        5D+2       -0.00293   0.02664   0.07533  -0.03900   0.03384
  54        5D-2        0.01910  -0.03505  -0.00175   0.05930   0.09444
  55 4   H  1S          0.03381  -0.02861  -0.00690   0.03908   0.09585
  56        2S         -0.52182   0.56687   0.57041  -0.07334  -0.85943
  57        3S          0.15211   0.40660   0.83399   0.10339  -0.05270
  58        4PX        -0.14939   0.08374   0.00707  -0.05952  -0.31821
  59        4PY        -0.03045   0.12824   0.12135   0.05684  -0.09876
  60        4PZ        -0.00458  -0.03671  -0.16386  -0.08415   0.04007
  61 5   H  1S         -0.00152   0.00825   0.02168   0.03298   0.00501
  62        2S          0.10417  -0.36537   0.18173   0.04351  -0.19521
  63        3S          0.02343   0.03423   0.05689  -0.03236   0.11641
  64        4PX         0.01844  -0.02401  -0.00697  -0.10880   0.18909
  65        4PY         0.00580  -0.01083   0.13328   0.04959  -0.06684
  66        4PZ         0.06579  -0.02984  -0.03327   0.02847   0.10056
                          31        32        33        34        35
                           V         V         V         V         V
     Eigenvalues --     1.11742   1.22042   1.35371   1.38971   1.45313
   1 1   N  1S          0.07944  -0.01093  -0.00633  -0.00307  -0.00111
   2        2S          0.15285  -0.02126  -0.01323  -0.00680  -0.00175
   3        2PX        -0.11103  -0.00393  -0.06049  -0.03324  -0.03499
   4        2PY        -0.05080   0.00305  -0.03056  -0.01409  -0.00678
   5        2PZ         0.00647  -0.00020  -0.00677   0.00704  -0.00357
   6        3S         -1.34044   0.20985   0.07976   0.04593  -0.00918
   7        3PX         0.00234  -0.02441  -0.22348  -0.17454  -0.14505
   8        3PY        -0.04401  -0.01551  -0.06503  -0.05255  -0.00654
   9        3PZ         0.00247  -0.02784  -0.01372   0.01927   0.05986
  10        4S          7.23877  -1.33025   0.64996   0.32149   1.08523
  11        4PX         1.33764   0.84470   3.34970   4.30820   2.85091
  12        4PY         0.60581   0.15039   0.52421   0.74016   0.31883
  13        4PZ        -0.08601   0.25708   0.21651   0.02088  -0.16084
  14        5D 0       -0.10935   0.13676   0.00396   0.01089  -0.02535
  15        5D+1        0.02640   0.04689   0.00753  -0.00618  -0.41096
  16        5D-1       -0.00807   0.01245  -0.05854   0.08200  -0.07072
  17        5D+2        0.21056   0.00600   0.01139  -0.00321   0.06761
  18        5D-2        0.04893   0.02390   0.00777   0.02219  -0.17126
  19 2   N  1S         -0.07348   0.00706  -0.01150  -0.00573  -0.00533
  20        2S         -0.14062   0.01304  -0.02410  -0.01288  -0.01188
  21        2PX        -0.13580   0.01395  -0.00001   0.02058   0.00972
  22        2PY        -0.02729  -0.00338   0.01172   0.00645   0.04127
  23        2PZ        -0.00160  -0.01545  -0.00602  -0.00134   0.06793
  24        3S          1.18524  -0.12189   0.21895   0.13620   0.13105
  25        3PX         0.04566  -0.00599   0.05183   0.11258   0.07408
  26        3PY         0.01415  -0.00873   0.03081   0.02797   0.07463
  27        3PZ        -0.00110  -0.02130  -0.00531  -0.00460   0.11352
  28        4S         -5.33349  -0.02071  -3.20016  -3.79053  -2.83143
  29        4PX         2.51579  -0.08010   1.20549   1.37071   1.04726
  30        4PY         0.38969  -0.01327   0.22536   0.26377   0.26575
  31        4PZ         0.04468  -0.07898  -0.03533   0.02892   0.07616
  32        5D 0        0.08936   0.01528   0.01012   0.00988   0.00149
  33        5D+1       -0.00406  -0.03899  -0.01275  -0.00653   0.26072
  34        5D-1       -0.00153  -0.00921  -0.02414   0.02838   0.05809
  35        5D+2       -0.13441   0.03192  -0.01648  -0.00654  -0.07365
  36        5D-2       -0.05969   0.00078   0.00157  -0.01279   0.12465
  37 3   N  1S         -0.02393   0.01561   0.00249   0.00433   0.00609
  38        2S         -0.04645   0.03235   0.00329   0.01025   0.01361
  39        2PX         0.00628  -0.01506  -0.04553  -0.00562  -0.00490
  40        2PY         0.00156   0.00788  -0.00235   0.00004  -0.02553
  41        2PZ         0.01051  -0.00840   0.00405  -0.03442  -0.08234
  42        3S          0.51920  -0.33634  -0.02594  -0.18947  -0.16242
  43        3PX        -0.09790   0.03524  -0.06773   0.02557   0.12664
  44        3PY         0.03378  -0.06379  -0.03990   0.03920  -0.10362
  45        3PZ        -0.06203   0.03667   0.07682  -0.05187  -0.10131
  46        4S         -2.18005   1.72009   2.28417   3.61246   2.11669
  47        4PX        -0.98305   0.61501   1.08032   1.45356   0.28870
  48        4PY         0.00108  -0.28803  -0.05535  -0.60159   0.00017
  49        4PZ        -0.17330  -0.10849  -0.00021   0.64803   0.37777
  50        5D 0        0.04392   0.24351   0.02179  -0.01917   0.14116
  51        5D+1       -0.02684  -0.09113  -0.00788  -0.01122   0.36283
  52        5D-1        0.00357  -0.01834  -0.09865   0.04160  -0.05713
  53        5D+2       -0.01086   0.16739  -0.02049  -0.02664   0.01310
  54        5D-2        0.03927  -0.00171  -0.03645  -0.07101   0.14459
  55 4   H  1S         -0.01413   0.03525   0.11322  -0.03501  -0.08262
  56        2S          0.36392  -0.29854  -0.15302  -0.45757  -0.15053
  57        3S         -0.03691   0.01382   0.12066   0.02461  -0.05160
  58        4PX        -0.07022  -0.09980   0.31739   0.02516   0.31063
  59        4PY         0.14103   0.51197  -0.17939  -0.01982  -0.14457
  60        4PZ        -0.07752   0.59436   0.12535   0.14016   0.15982
  61 5   H  1S          0.02652   0.06612  -0.00356  -0.01227   0.03291
  62        2S          0.14813   0.05494  -0.02942   0.00975  -0.08385
  63        3S         -0.13904  -0.10161   0.06247   0.10473  -0.08222
  64        4PX        -0.16229  -0.20322  -0.62865  -0.23193  -0.03575
  65        4PY         0.14124   0.21925  -0.54002  -0.17414   0.34340
  66        4PZ        -0.01004   0.08569   0.32102  -0.92381   0.00515
                          36        37        38        39        40
                           V         V         V         V         V
     Eigenvalues --     1.49614   1.64569   1.65746   1.70347   1.81477
   1 1   N  1S         -0.00976  -0.00136  -0.00048   0.00033  -0.00219
   2        2S         -0.01972  -0.00209  -0.00113  -0.00039  -0.00352
   3        2PX         0.02092  -0.04041   0.00011   0.06003  -0.01362
   4        2PY        -0.01136  -0.02773  -0.01421   0.01942   0.03030
   5        2PZ        -0.00933   0.03111  -0.01257  -0.01219  -0.02598
   6        3S          0.28742   0.01627   0.00788   0.05124   0.05785
   7        3PX         0.21538  -0.02771  -0.03461   0.02150  -0.03527
   8        3PY         0.07010  -0.04145  -0.02898   0.01319   0.02291
   9        3PZ        -0.01342   0.04692  -0.01920  -0.01473  -0.00242
  10        4S         -3.73229   0.23082   0.19905  -1.07104  -0.17200
  11        4PX        -4.21912   0.55851   1.02388   1.54237   1.83536
  12        4PY        -0.92453   0.30895   0.13035  -0.10123  -0.08426
  13        4PZ        -0.04726  -0.26053   0.07269   0.41320  -0.16315
  14        5D 0       -0.01782  -0.04698  -0.61123  -0.03469   0.08621
  15        5D+1       -0.01573   0.20994   0.03488  -0.23622   0.20867
  16        5D-1        0.03967  -0.59155   0.09189  -0.37914  -0.00620
  17        5D+2       -0.04447  -0.06692  -0.37158  -0.05201  -0.01995
  18        5D-2       -0.33645  -0.10611  -0.00029   0.25745   0.10861
  19 2   N  1S          0.00993  -0.00373  -0.00037   0.00690   0.00157
  20        2S          0.02018  -0.00872  -0.00107   0.01453   0.00225
  21        2PX        -0.05435  -0.00722   0.01371   0.03004   0.02249
  22        2PY         0.04497   0.01460  -0.01774  -0.03567  -0.00122
  23        2PZ         0.00642  -0.01825  -0.00767   0.05356  -0.04283
  24        3S         -0.26918   0.07030   0.02102  -0.11578  -0.00940
  25        3PX        -0.26007  -0.03507   0.04148   0.09681   0.04509
  26        3PY         0.03940   0.01734  -0.02757  -0.04808  -0.01247
  27        3PZ         0.00713  -0.02956  -0.01216   0.08518  -0.06214
  28        4S          5.22639  -0.60178  -0.93081  -0.74452  -1.34918
  29        4PX        -2.02623   0.25844   0.33443   0.16044   0.44136
  30        4PY        -0.38777  -0.02694   0.09662   0.18482   0.22636
  31        4PZ        -0.03242   0.10810  -0.01133  -0.17596   0.13045
  32        5D 0       -0.05683  -0.04730  -0.46136  -0.02006   0.10856
  33        5D+1        0.00721   0.03284  -0.05186   0.29548  -0.20196
  34        5D-1        0.01912  -0.43168   0.04645  -0.28218  -0.15643
  35        5D+2       -0.07549  -0.06724  -0.20856   0.08718   0.05677
  36        5D-2        0.19072   0.03432  -0.19843  -0.17114   0.03869
  37 3   N  1S          0.03036   0.02086   0.00159  -0.00700   0.01839
  38        2S          0.06167   0.04386   0.00347  -0.01126   0.03991
  39        2PX        -0.03362  -0.00128   0.00233   0.03559  -0.02780
  40        2PY        -0.05785   0.01752   0.00024  -0.01257  -0.04697
  41        2PZ        -0.00299  -0.01916  -0.00091   0.01703   0.07775
  42        3S         -0.53815  -0.34118  -0.06113  -0.04433  -0.46218
  43        3PX        -0.10924   0.11131   0.04295   0.02836   0.12385
  44        3PY        -0.15286   0.14489  -0.05517  -0.04262  -0.17491
  45        3PZ        -0.03303  -0.14099   0.01355   0.07216   0.01012
  46        4S         -1.20488   0.77198   0.86736   1.63302   2.15991
  47        4PX        -0.11226  -0.18569   0.21780   1.28856   0.37832
  48        4PY         0.54299  -0.44600   0.00257   0.14305   0.58831
  49        4PZ        -0.01830   0.46122   0.01414  -0.15721   0.39767
  50        5D 0       -0.00729  -0.06233  -0.08524   0.03037  -0.07623
  51        5D+1       -0.03791  -0.11120   0.05020   0.10967   0.03280
  52        5D-1        0.08802  -0.17452   0.00752   0.10654   0.11940
  53        5D+2        0.01840   0.00357  -0.06496   0.00551   0.02009
  54        5D-2        0.31738   0.12534  -0.02142  -0.14116  -0.16772
  55 4   H  1S          0.09231   0.17607  -0.03072  -0.33778  -0.48097
  56        2S         -0.14795  -0.70037  -0.02980   0.67446   0.47129
  57        3S          0.11227   0.12545  -0.00090  -0.20586  -0.21350
  58        4PX        -0.39724   0.35150   0.01334  -0.59957   0.13125
  59        4PY         0.07463   0.17228   0.06860   0.05770  -0.36457
  60        4PZ        -0.31911  -0.09915   0.17744  -0.07591  -0.08108
  61 5   H  1S          0.00446   0.01129  -0.02209  -0.01928  -0.46767
  62        2S         -0.03950  -0.01444   0.03568   0.02968   0.37310
  63        3S         -0.12686  -0.01736  -0.09149   0.07610  -0.43415
  64        4PX        -0.48812   0.10362  -0.09170  -0.17096  -0.38748
  65        4PY         0.08081   0.10324   0.13978  -0.16383   0.63141
  66        4PZ        -0.05720  -0.14529   0.04646   0.02269   0.07695
                          41        42        43        44        45
                           V         V         V         V         V
     Eigenvalues --     1.85011   2.07582   2.10272   2.17251   2.24086
   1 1   N  1S         -0.01019  -0.00065   0.00376  -0.00170   0.00686
   2        2S         -0.02121  -0.00207   0.00870  -0.00294   0.01947
   3        2PX        -0.01010   0.00052   0.00060   0.01691   0.02857
   4        2PY        -0.03193  -0.04558   0.01483  -0.06888   0.14797
   5        2PZ         0.03060  -0.02473   0.00133  -0.11335  -0.06249
   6        3S          0.22883   0.01209  -0.04869   0.07584  -0.17017
   7        3PX        -0.09764  -0.01331   0.03786  -0.00498   0.04468
   8        3PY        -0.02212  -0.01482  -0.01743  -0.01789   0.00437
   9        3PZ         0.01868  -0.02051   0.01902  -0.01394   0.00405
  10        4S         -0.94357   0.07772  -0.04012  -0.54459  -0.45399
  11        4PX         3.01310  -0.44542   0.82195   1.11592   1.31822
  12        4PY         0.01673  -0.08001   0.20634  -0.34505   0.51004
  13        4PZ         0.12677  -0.02634   0.10776  -0.35847   0.02664
  14        5D 0        0.05021  -0.40914  -0.13428   0.04100  -0.15821
  15        5D+1       -0.13535   0.00367   0.06231   0.05605  -0.09256
  16        5D-1        0.05804   0.13312  -0.52367   0.00816   0.21463
  17        5D+2       -0.10902  -0.24178  -0.09575  -0.06149   0.11920
  18        5D-2        0.29775  -0.08113  -0.03378   0.10380   0.09301
  19 2   N  1S          0.00093  -0.00168   0.00081   0.00014   0.00881
  20        2S          0.00111  -0.00351   0.00125  -0.00045   0.02195
  21        2PX         0.03294  -0.00623   0.01102   0.01361  -0.00070
  22        2PY        -0.04869  -0.00801   0.01597  -0.01401   0.02037
  23        2PZ         0.02630  -0.00270  -0.00224  -0.02890  -0.00094
  24        3S         -0.00538   0.02478  -0.00544   0.00012  -0.18864
  25        3PX         0.06460  -0.02724   0.02063   0.00661   0.18036
  26        3PY        -0.07406  -0.01682   0.01240  -0.03914   0.06188
  27        3PZ         0.03667  -0.00792   0.00624  -0.03887   0.00017
  28        4S         -2.02275   0.32642  -0.66760  -0.61370  -0.83114
  29        4PX         0.63359  -0.11022   0.24664   0.14943   0.22114
  30        4PY         0.38101   0.00609  -0.00493   0.28049  -0.17834
  31        4PZ        -0.06641   0.01699  -0.02290   0.24125   0.03692
  32        5D 0        0.10544   0.65304   0.18862  -0.00367  -0.02738
  33        5D+1        0.10615  -0.03010  -0.12361  -0.43106  -0.11798
  34        5D-1        0.25419  -0.22184   0.71254  -0.08530  -0.21246
  35        5D+2        0.16468   0.38701   0.07703   0.14173  -0.03868
  36        5D-2       -0.25223   0.03392   0.10855  -0.30831   0.48531
  37 3   N  1S          0.03259  -0.00686   0.00609   0.01085   0.02385
  38        2S          0.06562  -0.01645   0.01921   0.02743   0.05613
  39        2PX         0.07235  -0.00313  -0.01799  -0.01392   0.02700
  40        2PY         0.09541  -0.01576  -0.05445   0.02753   0.05928
  41        2PZ        -0.07209  -0.03143   0.05881   0.02343  -0.01702
  42        3S         -0.58686   0.15916  -0.23263  -0.31900  -0.53208
  43        3PX         0.28153  -0.05362   0.11406   0.15873   0.03668
  44        3PY         0.05779  -0.08443   0.17589   0.06221   0.21736
  45        3PZ        -0.12634   0.05860  -0.12532  -0.14580  -0.18518
[...]
     3   7     0.06   0.07  -0.17    -0.00  -0.10  -0.06    -0.17   0.06  -0.08
     4   1    -0.53   0.32  -0.33     0.06  -0.52  -0.47     0.86  -0.35   0.30
     5   1    -0.31   0.12   0.30     0.47  -0.28  -0.07    -0.00   0.06  -0.02
                     7                      8                      9
                     A                      A                      A
 Frequencies --  1294.5290              2287.6020              3519.1610
 Red. masses --     3.2367                12.2160                 1.0761
 Frc consts  --     3.1957                37.6651                 7.8524
 IR Inten    --     1.6678               428.9861                58.9421
  Atom  AN      X      Y      Z        X      Y      Z        X      Y      Z
     1   7     0.09   0.03  -0.02     0.72   0.13   0.00    -0.00   0.00  -0.00
     2   7     0.27   0.03   0.01    -0.53  -0.11  -0.00    -0.00  -0.00  -0.00
     3   7    -0.29  -0.07   0.02    -0.17  -0.02   0.00     0.04   0.05  -0.04
     4   1    -0.87   0.10  -0.19    -0.36   0.03  -0.08    -0.46  -0.65   0.60
     5   1    -0.06   0.13   0.03     0.02  -0.03  -0.02     0.00  -0.01  -0.00

 -------------------
 - Thermochemistry -
 -------------------
 Temperature   298.150 Kelvin.  Pressure   1.00000 Atm.
 Atom     1 has atomic number  7 and mass  14.00307
 Atom     2 has atomic number  7 and mass  14.00307
 Atom     3 has atomic number  7 and mass  14.00307
 Atom     4 has atomic number  1 and mass   1.00783
 Atom     5 has atomic number  1 and mass   1.00783
 Molecular mass:    44.02487 amu.
 Principal axes and moments of inertia in atomic units:
                           1         2         3
     Eigenvalues --    13.05719 162.89268 172.57853
           X            0.99886  -0.04078  -0.02492
           Y            0.04035   0.99903  -0.01764
           Z            0.02561   0.01661   0.99953
 This molecule is an asymmetric top.
 Rotational symmetry number  1.
 Rotational temperatures (Kelvin)      6.63342     0.53172     0.50188
 Rotational constants (GHZ):         138.21818    11.07933    10.45751
    1 imaginary frequencies ignored.
 Zero-point vibrational energy      59894.7 (Joules/Mol)
                                   14.31517 (Kcal/Mol)
 Warning -- explicit consideration of   3 degrees of freedom as
           vibrations may cause significant error
 Vibrational temperatures:    286.64   503.58   810.75   908.86  1680.34
          (Kelvin)           1862.54  3291.34  5063.28
 
 Zero-point correction=                           0.022813 (Hartree/Particle)
 Thermal correction to Energy=                    0.026924
 Thermal correction to Enthalpy=                  0.027868
 Thermal correction to Gibbs Free Energy=        -0.002294
 Sum of electronic and zero-point Energies=           -165.200775
 Sum of electronic and thermal Energies=              -165.196664
 Sum of electronic and thermal Enthalpies=            -165.195720
 Sum of electronic and thermal Free Energies=         -165.225882
 
                     E (Thermal)             CV                S
                      KCal/Mol        Cal/Mol-Kelvin    Cal/Mol-Kelvin
 Total                   16.895             11.835             63.481
 Electronic               0.000              0.000              1.377
 Translational            0.889              2.981             37.273
 Rotational               0.889              2.981             20.534
 Vibrational             15.117              5.873              4.297
 Vibration     1          0.637              1.841              2.140
 Vibration     2          0.727              1.575              1.166
 Vibration     3          0.919              1.110              0.517
                       Q            Log10(Q)             Ln(Q)
 Total Bot       0.113565D+02          1.055245          2.429790
 Total V=0       0.353446D+12         11.548324         26.590998
 Vib (Bot)       0.721102D-10        -10.142003        -23.352826
 Vib (Bot)    1  0.100116D+01          0.000505          0.001163
 Vib (Bot)    2  0.527132D+00         -0.278080         -0.640304
 Vib (Bot)    3  0.274878D+00         -0.560861         -1.291429
 Vib (V=0)       0.224427D+01          0.351076          0.808382
 Vib (V=0)    1  0.161907D+01          0.209267          0.481855
 Vib (V=0)    2  0.122655D+01          0.088684          0.204202
 Vib (V=0)    3  0.107058D+01          0.029618          0.068197
 Electronic      0.200000D+01          0.301030          0.693147
 Translational   0.114816D+08          7.060002         16.256256
 Rotational      0.685828D+04          3.836215          8.833213
 
                                                        RC, from TS reverse 5
                                                             IR Spectrum
 
     3                                            2                                   1   1                                          
     5                                            2                                   2   1                   6 5       3    1       
     1                                            8                                   9   6                   3 6       5    9       
     9                                            8                                   5   8                   2 3       0    9       
 
     X                                            X                                   X   X                   X X       X    X       
     X                                            X                                       X                             X            
     X                                            X                                       X                             X            
                                                  X                                       X                                          
                                                  X                                       X                                          
                                                  X                                       X                                          
                                                  X                                       X                                          
                                                  X                                       X                                          
                                                  X                                                                                  
                                                  X                                                                                  
                                                  X                                                                                  
                                                  X                                                                                  
                                                  X                                                                                  
                                                  X                                                                                  
                                                  X                                                                                  
                                                  X                                                                                  
                                                  X                                                                                  
                                                  X                                                                                  
                                                  X                                                                                  
                                                  X                                                                                  
 
 ***** Axes restored to original set *****
 -------------------------------------------------------------------
 Center     Atomic                   Forces (Hartrees/Bohr)
 Number     Number              X              Y              Z
 -------------------------------------------------------------------
      1        7           0.002253002    0.002593439    0.000624186
      2        7          -0.001382748   -0.001416681   -0.000591881
      3        7          -0.002690845   -0.004326274    0.000881245
      4        1          -0.000398763   -0.000095886    0.000265928
      5        1           0.002219353    0.003245401   -0.001179478
 -------------------------------------------------------------------
 Cartesian Forces:  Max     0.004326274 RMS     0.002004711
 Z-matrix is all fixed cartesians, so copy forces.
 Force constants in Cartesian coordinates: 
                1             2             3             4             5 
      1  0.174272D+00
      2 -0.829168D-02  0.123717D+00
      3 -0.219290D+00  0.180216D-01  0.173384D+01
      4 -0.701976D-01  0.727417D-02  0.108312D+00  0.505410D-01
      5  0.102414D-01 -0.644674D-01 -0.372615D-01 -0.552265D-02  0.352996D-01
      6  0.133517D+00 -0.206756D-01 -0.113763D+01 -0.150942D+00  0.281023D-01
      7 -0.102659D+00  0.109359D-01  0.766784D-01  0.196619D-01 -0.991455D-02
      8  0.533773D-02 -0.358206D-01  0.230657D-01 -0.506329D-02  0.163286D-01
      9  0.107807D+00 -0.565011D-02 -0.535522D+00  0.422177D-01  0.113727D-01
     10  0.483778D-02  0.260922D-03  0.347487D-01 -0.171225D-02 -0.796121D-05
     11  0.292824D-02 -0.126680D-01  0.319163D-03 -0.550998D-03  0.663844D-02
     12 -0.278344D-01  0.199367D-03 -0.620410D-01  0.197497D-02  0.483359D-03
     13 -0.625342D-02 -0.101793D-01 -0.448610D-03  0.170702D-02  0.520377D-02
     14 -0.102157D-01 -0.107606D-01 -0.414492D-02  0.386277D-02  0.620076D-02
     15  0.580070D-02  0.810477D-02  0.134813D-02 -0.156241D-02 -0.269685D-02
                6             7             8             9            10 
      6  0.120391D+01
      7  0.330155D-02  0.344030D+00
      8 -0.211219D-01 -0.220852D-02  0.113942D-01
      9 -0.735951D-01  0.955016D-01  0.320072D-03  0.785201D+00
     10  0.488258D-02 -0.267038D+00 -0.704687D-02 -0.234674D+00  0.263060D+00
     11 -0.810447D-03 -0.527784D-02 -0.450053D-03  0.558156D-02  0.370629D-02
     12  0.108716D-01 -0.170683D+00  0.268888D-02 -0.175604D+00  0.196069D+00
     13  0.924102D-02  0.600398D-02  0.898094D-02 -0.108523D-01  0.852271D-03
     14  0.145056D-01  0.646498D-02  0.854786D-02 -0.116242D-01  0.308762D-02
     15 -0.355853D-02 -0.479809D-02 -0.495281D-02 -0.479957D-03 -0.102589D-02
               11            12            13            14            15 
     11  0.518679D-02
     12 -0.272190D-02  0.225573D+00
     13 -0.805687D-03  0.474155D-03 -0.230985D-02
     14  0.129286D-02 -0.649714D-03 -0.319969D-02 -0.528087D-02
     15 -0.236838D-02  0.120118D-02  0.158570D-02  0.191327D-02  0.148917D-02
 Leave Link  716 at Tue Apr 29 14:51:57 2014, MaxMem=   65536000 cpu:       0.2
 (Enter /apps/gaussian/g09/l103.exe)

 GradGradGradGradGradGradGradGradGradGradGradGradGradGradGradGradGradGrad
 Berny optimization.
 Search for a local minimum.
 Step number   1 out of a maximum of    2
 All quantities printed in internal units (Hartrees-Bohrs-Radians)
 Second derivative matrix not updated -- analytic derivatives used.
 The second derivative matrix:
                          X1        Y1        Z1        X2        Y2
           X1           0.17427
           Y1          -0.00829   0.12372
           Z1          -0.21929   0.01802   1.73384
           X2          -0.07020   0.00727   0.10831   0.05054
           Y2           0.01024  -0.06447  -0.03726  -0.00552   0.03530
           Z2           0.13352  -0.02068  -1.13763  -0.15094   0.02810
           X3          -0.10266   0.01094   0.07668   0.01966  -0.00991
           Y3           0.00534  -0.03582   0.02307  -0.00506   0.01633
           Z3           0.10781  -0.00565  -0.53552   0.04222   0.01137
           X4           0.00484   0.00026   0.03475  -0.00171  -0.00001
           Y4           0.00293  -0.01267   0.00032  -0.00055   0.00664
           Z4          -0.02783   0.00020  -0.06204   0.00197   0.00048
           X5          -0.00625  -0.01018  -0.00045   0.00171   0.00520
           Y5          -0.01022  -0.01076  -0.00414   0.00386   0.00620
           Z5           0.00580   0.00810   0.00135  -0.00156  -0.00270
                          Z2        X3        Y3        Z3        X4
           Z2           1.20391
           X3           0.00330   0.34403
           Y3          -0.02112  -0.00221   0.01139
           Z3          -0.07360   0.09550   0.00032   0.78520
           X4           0.00488  -0.26704  -0.00705  -0.23467   0.26306
           Y4          -0.00081  -0.00528  -0.00045   0.00558   0.00371
           Z4           0.01087  -0.17068   0.00269  -0.17560   0.19607
           X5           0.00924   0.00600   0.00898  -0.01085   0.00085
           Y5           0.01451   0.00646   0.00855  -0.01162   0.00309
           Z5          -0.00356  -0.00480  -0.00495  -0.00048  -0.00103
                          Y4        Z4        X5        Y5        Z5
           Y4           0.00519
           Z4          -0.00272   0.22557
           X5          -0.00081   0.00047  -0.00231
           Y5           0.00129  -0.00065  -0.00320  -0.00528
           Z5          -0.00237   0.00120   0.00159   0.00191   0.00149
     Eigenvalues ---   -0.01804   0.00434   0.00789   0.05681   0.16572
     Eigenvalues ---    0.22053   0.58767   1.05713   2.75518
 Eigenvalue     1 is  -1.80D-02 should be greater than     0.000000 Eigenvector:
                          Y5        X5        Y3        Z5        X4
   1                   -0.73682  -0.48018   0.32273   0.24323   0.17494
                          Z4        X3        X2        X1        Y4
   1                   -0.10445   0.09962   0.06364  -0.04789  -0.04402
 Quadratic step=3.428D-01 exceeds max=3.000D-01 adjusted using Lamda=-2.230D-03.
 Angle between NR and scaled steps=   3.69 degrees.
 Angle between quadratic step and forces=  37.14 degrees.
 Linear search not attempted -- first point.
 TrRot= -0.010726 -0.023152  0.005131  1.787799  0.009387 -1.790637
 Variable       Old X    -DE/DX   Delta X   Delta X   Delta X     New X
                                 (Linear)    (Quad)   (Total)
    X1       -0.19890   0.00225   0.00000   0.02897   0.01762  -0.18128
    Y1       -0.11395   0.00259   0.00000   0.02761   0.00667  -0.10728
    Z1        0.18104   0.00062   0.00000   0.00720   0.01276   0.19380
    X2       -0.44749  -0.00138   0.00000  -0.02135  -0.03685  -0.48433
    Y2       -0.04651  -0.00142   0.00000   0.00141   0.00065  -0.04587
    Z2        2.30288  -0.00059   0.00000  -0.00527  -0.00078   2.30210
    X3        0.53752  -0.00269   0.00000  -0.02853  -0.03562   0.50190
    Y3       -0.03064  -0.00433   0.00000  -0.13421  -0.17744  -0.20807
    Z3       -2.03442   0.00088   0.00000   0.00093   0.00870  -2.02572
    X4       -0.93887  -0.00040   0.00000  -0.05196  -0.05608  -0.99496
    Y4       -0.03818  -0.00010   0.00000   0.05548   0.00542  -0.03276
    Z4       -3.26997   0.00027   0.00000   0.02867   0.03176  -3.23821
    X5        2.45155   0.00222   0.00000   0.10728   0.11093   2.56248
    Y5        2.69338   0.00325   0.00000   0.22284   0.16471   2.85809
    Z5       -2.97551  -0.00118   0.00000  -0.03622  -0.05244  -3.02795
         Item               Value     Threshold  Converged?
 Maximum Force            0.004326     0.000450     NO 
 RMS     Force            0.002005     0.000300     NO 
 Maximum Displacement     0.177436     0.001800     NO 
 RMS     Displacement     0.073517     0.001200     NO 
 Predicted change in Energy=-2.538830D-03
 GradGradGradGradGradGradGradGradGradGradGradGradGradGradGradGradGradGrad

 Leave Link  103 at Tue Apr 29 14:51:57 2014, MaxMem=   65536000 cpu:       0.1
 (Enter /apps/gaussian/g09/l9999.exe)

 Test job not archived.
 1\1\GINC-ROMEO158\Freq\UM06\6-311G(d,p)\H2N3(2)\ROOT\29-Apr-2014\0\\#P
  M06 6-311G** FREQ # GFINPUT IOP(6/7=3) POP=FULL\\RC, from TS reverse 
 5\\0,2\N,-0.105254,-0.060299,0.095801\N,-0.2368,-0.024613,1.218632\N,0
 .284443,-0.016213,-1.076568\H,-0.496831,-0.020203,-1.730394\H,1.297307
 ,1.425276,-1.574574\\Version=AM64L-G09RevA.02\State=2-A\HF=-165.223587
 6\S2=0.757723\S2-1=0.\S2A=0.750006\RMSD=3.799e-09\RMSF=2.005e-03\ZeroP
 oint=0.0228127\Thermal=0.0269237\Dipole=-0.6731514,-0.1857635,-0.44717
 26\DipoleDeriv=0.0480792,-0.1390307,-0.3046246,-0.1757792,0.044003,0.1
 369084,-0.6359334,-0.2642731,2.0113166,-0.1204387,0.0222357,0.0480303,
 0.0779492,-0.061119,-0.0840987,0.4764677,0.3075493,-1.0654301,-0.06170
 87,0.0552916,0.3505042,0.090642,-0.3177887,-0.1002794,0.147792,-0.0219
 381,-1.2257837,0.1570754,-0.0108023,-0.0776541,-0.0158288,0.3341628,0.
 0273458,0.0478958,0.0344852,0.3337942,-0.0230073,0.0723057,-0.0162559,
 0.0230168,0.0007419,0.020124,-0.0362221,-0.0558233,-0.053897\Polar=19.
 0159447,7.0445252,18.1006669,-9.5437124,-6.9946669,43.666168\PG=C01 [X
 (H2N3)]\NImag=1\\0.17427191,-0.00829168,0.12371670,-0.21929023,0.01802
 156,1.73384222,-0.07019759,0.00727417,0.10831174,0.05054096,0.01024140
 ,-0.06446744,-0.03726152,-0.00552265,0.03529965,0.13351682,-0.02067560
 ,-1.13762768,-0.15094196,0.02810234,1.20390962,-0.10265868,0.01093592,
 0.07667836,0.01966186,-0.00991455,0.00330155,0.34403048,0.00533773,-0.
 03582063,0.02306571,-0.00506329,0.01632859,-0.02112185,-0.00220852,0.0
 1139423,0.10780715,-0.00565011,-0.53552167,0.04221766,0.01137267,-0.07
 359505,0.09550155,0.00032007,0.78520101,0.00483778,0.00026092,0.034748
 73,-0.00171225,-0.00000796,0.00488258,-0.26703764,-0.00704687,-0.23467
 410,0.26305984,0.00292824,-0.01266803,0.00031916,-0.00055100,0.0066384
 4,-0.00081045,-0.00527784,-0.00045005,0.00558156,0.00370629,0.00518679
 ,-0.02783443,0.00019937,-0.06204101,0.00197497,0.00048336,0.01087164,-
 0.17068337,0.00268888,-0.17560434,0.19606868,-0.00272190,0.22557252,-0
 .00625342,-0.01017933,-0.00044861,0.00170702,0.00520377,0.00924102,0.0
 0600398,0.00898094,-0.01085226,0.00085227,-0.00080569,0.00047416,-0.00
 230985,-0.01021569,-0.01076061,-0.00414492,0.00386277,0.00620076,0.014
 50556,0.00646498,0.00854786,-0.01162420,0.00308762,0.00129286,-0.00064
 971,-0.00319969,-0.00528087,0.00580070,0.00810477,0.00134813,-0.001562
 41,-0.00269685,-0.00355853,-0.00479809,-0.00495281,-0.00047996,-0.0010
 2589,-0.00236838,0.00120118,0.00158570,0.00191327,0.00148917\\-0.00225
 300,-0.00259344,-0.00062419,0.00138275,0.00141668,0.00059188,0.0026908
 4,0.00432627,-0.00088125,0.00039876,0.00009589,-0.00026593,-0.00221935
 ,-0.00324540,0.00117948\\\@


 I MET A TRAVELLER FROM AN ANTIQUE LAND
 WHO SAID... TWO VAST AND TRUNKLESS LEGS OF STONE
 STAND IN THE DESERT..... NEAR THEM,  ON THE SAND,
 HALF SUNK,  A SHATTERED VISAGE LIES,  WHOSE FROWN,
 AND WRINKLED LIP,  AND SNEER OF COLD COMMAND
 TELL THAT ITS SCULPTOR WELL THOSE PASSIONS READ
 WHICH YET SURVIVE,  STAMPED ON THESE LIFELESS THINGS
 THE HAND THAT MOCKED THEM,  AND THE HEART THAT FED-
 AND ON THE PEDESTAL THESE WORDS APPEAR 
 MY NAME IS OZYMANDIAS, KING OF KINGS--   
 LOOK ON MY WORKS YE MIGHTY AND DESPAIR. 
 NOTHING BESIDE REMAINS,  ROUND THE DECAY 
 OF THAT COLOSSAL WRECK,  BOUNDLESS AND BARE
 THE LONE AND LEVEL SANDS STRETCH FAR AWAY.
                                    SHELLEY
 Job cpu time:  0 days  0 hours  1 minutes 50.3 seconds.
 File lengths (MBytes):  RWF=      9 Int=      0 D2E=      0 Chk=      1 Scr=      1
 Normal termination of Gaussian 09 at Tue Apr 29 14:51:57 2014.
************
total 320
drwxrwxr-x 2 henon henon   4096 29 avril 14:51 .
drwxrwxr-x 3 henon henon   4096 29 avril 14:51 ..
-rw-r--r-- 1 henon henon    376 29 avril 14:51 5Rfreq.inp
-rw-rw-r-- 1 henon henon 312592 29 avril 14:51 5Rfreq.out
Run on 12 cores
romeo158
************
