 Entering Gaussian System, Link 0=g09
 Initial command:
 /apps/gaussian/g09/l1.exe /scratch_l/henon/6Rfreq_28478/Gau-28494.inp -scrdir=/scratch_l/henon/6Rfreq_28478/
 Entering Link 1 = /apps/gaussian/g09/l1.exe PID=     28495.
  
 Copyright (c) 1988,1990,1992,1993,1995,1998,2003,2009, Gaussian, Inc.
                  All Rights Reserved.
  
 This is part of the Gaussian(R) 09 program.  It is based on
 the Gaussian(R) 03 system (copyright 2003, Gaussian, Inc.),
 the Gaussian(R) 98 system (copyright 1998, Gaussian, Inc.),
 the Gaussian(R) 94 system (copyright 1995, Gaussian, Inc.),
 the Gaussian 92(TM) system (copyright 1992, Gaussian, Inc.),
 the Gaussian 90(TM) system (copyright 1990, Gaussian, Inc.),
 the Gaussian 88(TM) system (copyright 1988, Gaussian, Inc.),
 the Gaussian 86(TM) system (copyright 1986, Carnegie Mellon
 University), and the Gaussian 82(TM) system (copyright 1983,
 Carnegie Mellon University). Gaussian is a federally registered
 trademark of Gaussian, Inc.
  
 This software contains proprietary and confidential information,
 including trade secrets, belonging to Gaussian, Inc.
  
 This software is provided under written license and may be
 used, copied, transmitted, or stored only in accord with that
 written license.
  
 The following legend is applicable only to US Government
 contracts under FAR:
  
                    RESTRICTED RIGHTS LEGEND
  
 Use, reproduction and disclosure by the US Government is
 subject to restrictions as set forth in subparagraphs (a)
 and (c) of the Commercial Computer Software - Restricted
 Rights clause in FAR 52.227-19.
  
 Gaussian, Inc.
 340 Quinnipiac St., Bldg. 40, Wallingford CT 06492
  
  
 ---------------------------------------------------------------
 Warning -- This program may not be used in any manner that
 competes with the business of Gaussian, Inc. or will provide
 assistance to any competitor of Gaussian, Inc.  The licensee
 of this program is prohibited from giving any competitor of
 Gaussian, Inc. access to this program.  By using this program,
 the user acknowledges that Gaussian, Inc. is engaged in the
 business of creating and licensing software in the field of
 computational chemistry and represents and warrants to the
 licensee that it is not a competitor of Gaussian, Inc. and that
 it will not use this program in any manner prohibited above.
 ---------------------------------------------------------------
  

 Cite this work as:
 Gaussian 09, Revision A.02,
 M. J. Frisch, G. W. Trucks, H. B. Schlegel, G. E. Scuseria, 
 M. A. Robb, J. R. Cheeseman, G. Scalmani, V. Barone, B. Mennucci, 
 G. A. Petersson, H. Nakatsuji, M. Caricato, X. Li, H. P. Hratchian, 
 A. F. Izmaylov, J. Bloino, G. Zheng, J. L. Sonnenberg, M. Hada, 
 M. Ehara, K. Toyota, R. Fukuda, J. Hasegawa, M. Ishida, T. Nakajima, 
 Y. Honda, O. Kitao, H. Nakai, T. Vreven, J. A. Montgomery, Jr., 
 J. E. Peralta, F. Ogliaro, M. Bearpark, J. J. Heyd, E. Brothers, 
 K. N. Kudin, V. N. Staroverov, R. Kobayashi, J. Normand, 
 K. Raghavachari, A. Rendell, J. C. Burant, S. S. Iyengar, J. Tomasi, 
 M. Cossi, N. Rega, J. M. Millam, M. Klene, J. E. Knox, J. B. Cross, 
 V. Bakken, C. Adamo, J. Jaramillo, R. Gomperts, R. E. Stratmann, 
 O. Yazyev, A. J. Austin, R. Cammi, C. Pomelli, J. W. Ochterski, 
 R. L. Martin, K. Morokuma, V. G. Zakrzewski, G. A. Voth, 
 P. Salvador, J. J. Dannenberg, S. Dapprich, A. D. Daniels, 
 O. Farkas, J. B. Foresman, J. V. Ortiz, J. Cioslowski, 
 and D. J. Fox, Gaussian, Inc., Wallingford CT, 2009.
 
 ******************************************
 Gaussian 09:  AM64L-G09RevA.02 11-Jun-2009
                29-Apr-2014 
 ******************************************
 %NPROC=12
 Will use up to   12 processors via shared memory.
 %MEM=500MB
 --------------------------------------------------
 #P M06 6-311G** FREQ # GFINPUT IOP(6/7=3) POP=FULL
 --------------------------------------------------
 1/10=4,30=1,38=1/1,3;
 2/12=2,17=6,18=5,40=1/2;
 3/5=4,6=6,7=101,11=2,16=1,24=10,25=1,30=1,71=2,74=-54/1,2,3;
 4//1;
 5/5=2,38=5,98=1/2;
 8/6=4,10=90,11=11/1;
 11/6=1,8=1,9=11,15=111,16=1/1,2,10;
 10/6=1/2;
 6/7=3,18=1,28=1/1;
 7/8=1,10=1,25=1/1,2,3,16;
 1/10=4,30=1/3;
 99//99;
 Leave Link    1 at Tue Apr 29 14:52:18 2014, MaxMem=   65536000 cpu:       0.4
 (Enter /apps/gaussian/g09/l101.exe)
 ---------------------
 RC, from TS reverse 6
 ---------------------
 Symbolic Z-matrix:
 Charge =  0 Multiplicity = 2
 7                    -0.10443  -0.05934   0.09605 
 7                    -0.23731  -0.02514   1.21843 
 7                     0.28347  -0.0178   -1.07628 
 1                    -0.49886  -0.02075  -1.72896 
 1                     1.30858   1.44187  -1.58074 
 
 NAtoms=      5 NQM=      5 NQMF=      0 NMic=      0 NMicF=      0 NTot=      5.
                    Isotopes and Nuclear Properties:
 (Nuclear quadrupole moments (NQMom) in fm**2, nuclear magnetic moments (NMagM)
  in nuclear magnetons)

  Atom         1           2           3           4           5
 IAtWgt=          14          14          14           1           1
 AtmWgt=  14.0030740  14.0030740  14.0030740   1.0078250   1.0078250
 NucSpn=           2           2           2           1           1
 AtZEff=   0.0000000   0.0000000   0.0000000   0.0000000   0.0000000
 NQMom=    2.0440000   2.0440000   2.0440000   0.0000000   0.0000000
 NMagM=    0.4037610   0.4037610   0.4037610   2.7928460   2.7928460
 Leave Link  101 at Tue Apr 29 14:52:18 2014, MaxMem=   65536000 cpu:       0.6
 (Enter /apps/gaussian/g09/l103.exe)

 GradGradGradGradGradGradGradGradGradGradGradGradGradGradGradGradGradGrad
 Berny optimization.
 Initialization pass.
 Trust Radius=3.00D-01 FncErr=1.00D-07 GrdErr=1.00D-07
 Number of steps in this run=   2 maximum allowed number of steps=   2.
 GradGradGradGradGradGradGradGradGradGradGradGradGradGradGradGradGradGrad

 Leave Link  103 at Tue Apr 29 14:52:18 2014, MaxMem=   65536000 cpu:       0.1
 (Enter /apps/gaussian/g09/l202.exe)
                          Input orientation:                          
 ---------------------------------------------------------------------
 Center     Atomic      Atomic             Coordinates (Angstroms)
 Number     Number       Type             X           Y           Z
 ---------------------------------------------------------------------
      1          7           0       -0.104429   -0.059340    0.096050
      2          7           0       -0.237312   -0.025140    1.218429
      3          7           0        0.283465   -0.017800   -1.076275
      4          1           0       -0.498863   -0.020745   -1.728957
      5          1           0        1.308580    1.441870   -1.580736
 ---------------------------------------------------------------------
                    Distance matrix (angstroms):
                    1          2          3          4          5
     1  N    0.000000
     2  N    1.130735   0.000000
     3  N    1.235530   2.353068   0.000000
     4  H    1.867543   2.958972   1.018842   0.000000
     5  H    2.657412   3.518128   1.853639   2.329820   0.000000
 Stoichiometry    H2N3(2)
 Framework group  C1[X(H2N3)]
 Deg. of freedom     9
 Full point group                 C1      NOp   1
 Largest Abelian subgroup         C1      NOp   1
 Largest concise Abelian subgroup C1      NOp   1
                         Standard orientation:                         
 ---------------------------------------------------------------------
 Center     Atomic      Atomic             Coordinates (Angstroms)
 Number     Number       Type             X           Y           Z
 ---------------------------------------------------------------------
      1          7           0        0.201062   -0.102410    0.009251
      2          7           0        1.310853    0.113992    0.019063
      3          7           0       -1.026941   -0.110527   -0.126673
      4          1           0       -1.467350   -0.785442    0.496680
      5          1           0       -1.927466    1.478055    0.191826
 ---------------------------------------------------------------------
 Rotational constants (GHZ):    135.9570015     11.0757239     10.4428121
 Leave Link  202 at Tue Apr 29 14:52:18 2014, MaxMem=   65536000 cpu:       0.9
 (Enter /apps/gaussian/g09/l301.exe)
 Standard basis: 6-311G(d,p) (5D, 7F)
 Ernie: Thresh=  0.10000D-02 Tol=  0.10000D-05 Strict=F.
 AO basis set in the form of general basis input (Overlap normalization):
      1 0
 S   6 1.00       0.000000000000
      0.6293480000D+04  0.1969788147D-02
      0.9490440000D+03  0.1496128592D-01
      0.2187760000D+03  0.7350053084D-01
      0.6369160000D+02  0.2489367658D+00
      0.1882820000D+02  0.6024594331D+00
      0.2720230000D+01  0.2562017589D+00
 SP   3 1.00       0.000000000000
      0.3063310000D+02  0.1119060795D+00  0.3831191864D-01
      0.7026140000D+01  0.9216666549D+00  0.2374031155D+00
      0.2112050000D+01 -0.2569191826D-02  0.8175923978D+00
 SP   1 1.00       0.000000000000
      0.6840090000D+00  0.1000000000D+01  0.1000000000D+01
 SP   1 1.00       0.000000000000
      0.2008780000D+00  0.1000000000D+01  0.1000000000D+01
 D   1 1.00       0.000000000000
      0.9130000000D+00  0.1000000000D+01
 ****
      2 0
 S   6 1.00       0.000000000000
      0.6293480000D+04  0.1969788147D-02
      0.9490440000D+03  0.1496128592D-01
      0.2187760000D+03  0.7350053084D-01
      0.6369160000D+02  0.2489367658D+00
      0.1882820000D+02  0.6024594331D+00
      0.2720230000D+01  0.2562017589D+00
 SP   3 1.00       0.000000000000
      0.3063310000D+02  0.1119060795D+00  0.3831191864D-01
      0.7026140000D+01  0.9216666549D+00  0.2374031155D+00
      0.2112050000D+01 -0.2569191826D-02  0.8175923978D+00
 SP   1 1.00       0.000000000000
      0.6840090000D+00  0.1000000000D+01  0.1000000000D+01
 SP   1 1.00       0.000000000000
      0.2008780000D+00  0.1000000000D+01  0.1000000000D+01
 D   1 1.00       0.000000000000
      0.9130000000D+00  0.1000000000D+01
 ****
      3 0
 S   6 1.00       0.000000000000
      0.6293480000D+04  0.1969788147D-02
      0.9490440000D+03  0.1496128592D-01
      0.2187760000D+03  0.7350053084D-01
      0.6369160000D+02  0.2489367658D+00
      0.1882820000D+02  0.6024594331D+00
      0.2720230000D+01  0.2562017589D+00
 SP   3 1.00       0.000000000000
      0.3063310000D+02  0.1119060795D+00  0.3831191864D-01
      0.7026140000D+01  0.9216666549D+00  0.2374031155D+00
      0.2112050000D+01 -0.2569191826D-02  0.8175923978D+00
 SP   1 1.00       0.000000000000
      0.6840090000D+00  0.1000000000D+01  0.1000000000D+01
 SP   1 1.00       0.000000000000
      0.2008780000D+00  0.1000000000D+01  0.1000000000D+01
 D   1 1.00       0.000000000000
      0.9130000000D+00  0.1000000000D+01
 ****
      4 0
 S   3 1.00       0.000000000000
      0.3386500000D+02  0.2549381454D-01
      0.5094790000D+01  0.1903731086D+00
      0.1158790000D+01  0.8521614860D+00
 S   1 1.00       0.000000000000
      0.3258400000D+00  0.1000000000D+01
 S   1 1.00       0.000000000000
      0.1027410000D+00  0.1000000000D+01
 P   1 1.00       0.000000000000
      0.7500000000D+00  0.1000000000D+01
 ****
      5 0
 S   3 1.00       0.000000000000
      0.3386500000D+02  0.2549381454D-01
      0.5094790000D+01  0.1903731086D+00
      0.1158790000D+01  0.8521614860D+00
 S   1 1.00       0.000000000000
      0.3258400000D+00  0.1000000000D+01
 S   1 1.00       0.000000000000
      0.1027410000D+00  0.1000000000D+01
 P   1 1.00       0.000000000000
      0.7500000000D+00  0.1000000000D+01
 ****

 There are    66 symmetry adapted basis functions of A   symmetry.
 Integral buffers will be    131072 words long.
 Raffenetti 2 integral format.
 Two-electron integral symmetry is turned on.
    66 basis functions,   112 primitive gaussians,    69 cartesian basis functions
    12 alpha electrons       11 beta electrons
       nuclear repulsion energy        66.4813274906 Hartrees.
 IExCor= 4235 DFT=T Ex+Corr=M06 ExCW=0 ScaHFX=  0.270000
 ScaDFX=  1.000000  1.000000  1.000000  1.000000 ScalE2=  1.000000  1.000000
 IRadAn=      0 IRanWt=     -1 IRanGd=            0 ICorTp=0
 NAtoms=    5 NActive=    5 NUniq=    5 SFac= 7.50D-01 NAtFMM=   80 NAOKFM=F Big=F
 Leave Link  301 at Tue Apr 29 14:52:18 2014, MaxMem=   65536000 cpu:       0.3
 (Enter /apps/gaussian/g09/l302.exe)
 NPDir=0 NMtPBC=     1 NCelOv=     1 NCel=       1 NClECP=     1 NCelD=      1
         NCelK=      1 NCelE2=     1 NClLst=     1 CellRange=     0.0.
 One-electron integrals computed using PRISM.
 NBasis=    66 RedAO= T  NBF=    66
 NBsUse=    66 1.00D-06 NBFU=    66
 Precomputing XC quadrature grid using
 IXCGrd= 2 IRadAn=           0 IRanWt=          -1 IRanGd=           0 AccXCQ= 1.00D-10.
 NRdTot=     311 NPtTot=       39452 NUsed=       41707 NTot=       41739
 NSgBfM=    69    69    69    69    69 NAtAll=     5     5.
 Leave Link  302 at Tue Apr 29 14:52:18 2014, MaxMem=   65536000 cpu:       2.5
 (Enter /apps/gaussian/g09/l303.exe)
 DipDrv:  MaxL=1.
 Leave Link  303 at Tue Apr 29 14:52:18 2014, MaxMem=   65536000 cpu:       0.2
 (Enter /apps/gaussian/g09/l401.exe)
 Harris functional with IExCor= 1009 diagonalized for initial guess.
 ExpMin= 1.03D-01 ExpMax= 6.29D+03 ExpMxC= 9.49D+02 IAcc=1 IRadAn=         1 AccDes= 0.00D+00
 HarFok:  IExCor= 1009 AccDes= 0.00D+00 IRadAn=         1 IDoV= 1
 ScaDFX=  1.000000  1.000000  1.000000  1.000000
 FoFCou: FMM=F IPFlag=           0 FMFlag=      100000 FMFlg1=           0
         NFxFlg=           0 DoJE=T BraDBF=F KetDBF=T FulRan=T
         Omega=  0.000000  0.000000  1.000000  0.000000  0.000000 ICntrl=     500 IOpCl=  0
         NMat0=    1 NMatS0=    1 NMatT0=    0 NMatD0=    1 NMtDS0=    0 NMtDT0=    0
         I1Cent=           4 NGrid=           0.
 Petite list used in FoFCou.
 Harris En= -165.164697274585    
 Initial guess orbital symmetries:
 Alpha Orbitals:
       Occupied  (A) (A) (A) (A) (A) (A) (A) (A) (A) (A) (A) (A)
       Virtual   (A) (A) (A) (A) (A) (A) (A) (A) (A) (A) (A) (A)
                 (A) (A) (A) (A) (A) (A) (A) (A) (A) (A) (A) (A)
                 (A) (A) (A) (A) (A) (A) (A) (A) (A) (A) (A) (A)
                 (A) (A) (A) (A) (A) (A) (A) (A) (A) (A) (A) (A)
                 (A) (A) (A) (A) (A) (A)
 Beta  Orbitals:
       Occupied  (A) (A) (A) (A) (A) (A) (A) (A) (A) (A) (A)
       Virtual   (A) (A) (A) (A) (A) (A) (A) (A) (A) (A) (A) (A)
                 (A) (A) (A) (A) (A) (A) (A) (A) (A) (A) (A) (A)
                 (A) (A) (A) (A) (A) (A) (A) (A) (A) (A) (A) (A)
                 (A) (A) (A) (A) (A) (A) (A) (A) (A) (A) (A) (A)
                 (A) (A) (A) (A) (A) (A) (A)
 The electronic state of the initial guess is 2-A.
 Initial guess <Sx>= 0.0000 <Sy>= 0.0000 <Sz>= 0.5000 <S**2>= 0.7500 S= 0.5000
 Leave Link  401 at Tue Apr 29 14:52:19 2014, MaxMem=   65536000 cpu:       1.6
 (Enter /apps/gaussian/g09/l502.exe)
 UHF open shell SCF:
 Requested convergence on RMS density matrix=1.00D-08 within 128 cycles.
 Requested convergence on MAX density matrix=1.00D-06.
 Requested convergence on             energy=1.00D-06.
 No special actions if energy rises.
 Using DIIS extrapolation, IDIIS=  1040.
 Integral symmetry usage will be decided dynamically.
        41649 words used for storage of precomputed grid.
 Keep R1 and R2 ints in memory in canonical form, NReq=6799222.
 IEnd=       75419 IEndB=       75419 NGot=    65536000 MDV=    59647384
 LenX=    59647384 LenY=    59642182
 Symmetry not used in FoFDir.
 MinBra= 0 MaxBra= 2 Meth= 1.
 IRaf=       0 NMat=   1 IRICut=       1 DoRegI=T DoRafI=F ISym2E= 0 JSym2E=0.
 Integral accuracy reduced to 1.0D-05 until final iterations.

 Cycle   1  Pass 0  IDiag  1:
 E= -165.179427262756    
 DIIS: error= 2.54D-02 at cycle   1 NSaved=   1.
 NSaved= 1 IEnMin= 1 EnMin= -165.179427262756     IErMin= 1 ErrMin= 2.54D-02
 ErrMax= 2.54D-02 EMaxC= 1.00D-01 BMatC= 2.14D-01 BMatP= 2.14D-01
 IDIUse=3 WtCom= 7.46D-01 WtEn= 2.54D-01
 Coeff-Com:  0.100D+01
 Coeff-En:   0.100D+01
 Coeff:      0.100D+01
 Gap=     0.183 Goal=   None    Shift=    0.000
 Gap=     0.202 Goal=   None    Shift=    0.000
 GapD=    0.183 DampG=1.000 DampE=0.500 DampFc=0.5000 IDamp=-1.
 Damping current iteration by 5.00D-01
 RMSDP=5.88D-03 MaxDP=1.33D-01              OVMax= 1.38D-01

 Cycle   2  Pass 0  IDiag  1:
 E= -165.192595382485     Delta-E=       -0.013168119729 Rises=F Damp=T
 DIIS: error= 8.94D-03 at cycle   2 NSaved=   2.
 NSaved= 2 IEnMin= 2 EnMin= -165.192595382485     IErMin= 2 ErrMin= 8.94D-03
 ErrMax= 8.94D-03 EMaxC= 1.00D-01 BMatC= 3.34D-02 BMatP= 2.14D-01
 IDIUse=3 WtCom= 9.11D-01 WtEn= 8.94D-02
 Coeff-Com:  0.217D+00 0.783D+00
 Coeff-En:   0.310D+00 0.690D+00
 Coeff:      0.225D+00 0.775D+00
 Gap=     0.188 Goal=   None    Shift=    0.000
 Gap=     0.227 Goal=   None    Shift=    0.000
 RMSDP=1.31D-03 MaxDP=2.14D-02 DE=-1.32D-02 OVMax= 8.95D-02

 Cycle   3  Pass 0  IDiag  1:
 E= -165.221428946711     Delta-E=       -0.028833564226 Rises=F Damp=F
 DIIS: error= 6.08D-03 at cycle   3 NSaved=   3.
 NSaved= 3 IEnMin= 3 EnMin= -165.221428946711     IErMin= 3 ErrMin= 6.08D-03
 ErrMax= 6.08D-03 EMaxC= 1.00D-01 BMatC= 9.33D-03 BMatP= 3.34D-02
 IDIUse=3 WtCom= 9.39D-01 WtEn= 6.08D-02
 Coeff-Com:  0.400D-01 0.327D+00 0.633D+00
 Coeff-En:   0.000D+00 0.000D+00 0.100D+01
 Coeff:      0.376D-01 0.307D+00 0.656D+00
 Gap=     0.188 Goal=   None    Shift=    0.000
 Gap=     0.241 Goal=   None    Shift=    0.000
 RMSDP=7.65D-04 MaxDP=9.92D-03 DE=-2.88D-02 OVMax= 2.95D-02

 Cycle   4  Pass 0  IDiag  1:
 E= -165.221708343852     Delta-E=       -0.000279397141 Rises=F Damp=F
 DIIS: error= 8.52D-03 at cycle   4 NSaved=   4.
 NSaved= 4 IEnMin= 4 EnMin= -165.221708343852     IErMin= 3 ErrMin= 6.08D-03
 ErrMax= 8.52D-03 EMaxC= 1.00D-01 BMatC= 9.07D-03 BMatP= 9.33D-03
 IDIUse=3 WtCom= 9.15D-01 WtEn= 8.52D-02
 Coeff-Com:  0.518D-04 0.120D+00 0.495D+00 0.385D+00
 Coeff-En:   0.000D+00 0.000D+00 0.468D+00 0.532D+00
 Coeff:      0.474D-04 0.110D+00 0.493D+00 0.397D+00
 Gap=     0.187 Goal=   None    Shift=    0.000
 Gap=     0.241 Goal=   None    Shift=    0.000
 RMSDP=5.20D-04 MaxDP=5.61D-03 DE=-2.79D-04 OVMax= 2.26D-02

 Cycle   5  Pass 0  IDiag  1:
 E= -165.223446514307     Delta-E=       -0.001738170456 Rises=F Damp=F
 DIIS: error= 2.85D-03 at cycle   5 NSaved=   5.
 NSaved= 5 IEnMin= 5 EnMin= -165.223446514307     IErMin= 5 ErrMin= 2.85D-03
 ErrMax= 2.85D-03 EMaxC= 1.00D-01 BMatC= 1.03D-03 BMatP= 9.07D-03
 IDIUse=3 WtCom= 9.72D-01 WtEn= 2.85D-02
 Coeff-Com: -0.122D-01-0.263D-02 0.166D+00 0.272D+00 0.577D+00
 Coeff-En:   0.000D+00 0.000D+00 0.000D+00 0.113D+00 0.887D+00
 Coeff:     -0.118D-01-0.256D-02 0.161D+00 0.268D+00 0.586D+00
 Gap=     0.194 Goal=   None    Shift=    0.000
 Gap=     0.243 Goal=   None    Shift=    0.000
 RMSDP=2.79D-04 MaxDP=4.39D-03 DE=-1.74D-03 OVMax= 1.46D-02

 Cycle   6  Pass 0  IDiag  1:
 E= -165.223739400447     Delta-E=       -0.000292886140 Rises=F Damp=F
 DIIS: error= 7.92D-04 at cycle   6 NSaved=   6.
 NSaved= 6 IEnMin= 6 EnMin= -165.223739400447     IErMin= 6 ErrMin= 7.92D-04
 ErrMax= 7.92D-04 EMaxC= 1.00D-01 BMatC= 8.56D-05 BMatP= 1.03D-03
 IDIUse=3 WtCom= 9.92D-01 WtEn= 7.92D-03
 Coeff-Com: -0.720D-02-0.109D-01-0.791D-01-0.778D-01 0.123D+00 0.105D+01
 Coeff-En:   0.000D+00 0.000D+00 0.000D+00 0.000D+00 0.000D+00 0.100D+01
 Coeff:     -0.714D-02-0.108D-01-0.785D-01-0.772D-01 0.122D+00 0.105D+01
 Gap=     0.194 Goal=   None    Shift=    0.000
 Gap=     0.246 Goal=   None    Shift=    0.000
 RMSDP=1.18D-04 MaxDP=1.88D-03 DE=-2.93D-04 OVMax= 7.52D-03

 Cycle   7  Pass 0  IDiag  1:
 E= -165.223787899103     Delta-E=       -0.000048498656 Rises=F Damp=F
 DIIS: error= 1.58D-04 at cycle   7 NSaved=   7.
 NSaved= 7 IEnMin= 7 EnMin= -165.223787899103     IErMin= 7 ErrMin= 1.58D-04
 ErrMax= 1.58D-04 EMaxC= 1.00D-01 BMatC= 4.16D-06 BMatP= 8.56D-05
 IDIUse=3 WtCom= 9.98D-01 WtEn= 1.58D-03
 Coeff-Com: -0.190D-03 0.722D-03-0.229D-01-0.358D-01-0.657D-01 0.153D+00
 Coeff-Com:  0.971D+00
 Coeff-En:   0.000D+00 0.000D+00 0.000D+00 0.000D+00 0.000D+00 0.000D+00
 Coeff-En:   0.100D+01
 Coeff:     -0.189D-03 0.721D-03-0.229D-01-0.358D-01-0.656D-01 0.153D+00
 Coeff:      0.971D+00
 Gap=     0.195 Goal=   None    Shift=    0.000
 Gap=     0.247 Goal=   None    Shift=    0.000
 RMSDP=4.48D-05 MaxDP=7.51D-04 DE=-4.85D-05 OVMax= 1.89D-03

 Cycle   8  Pass 0  IDiag  1:
 E= -165.223791112479     Delta-E=       -0.000003213376 Rises=F Damp=F
 DIIS: error= 4.32D-05 at cycle   8 NSaved=   8.
 NSaved= 8 IEnMin= 8 EnMin= -165.223791112479     IErMin= 8 ErrMin= 4.32D-05
 ErrMax= 4.32D-05 EMaxC= 1.00D-01 BMatC= 2.03D-07 BMatP= 4.16D-06
 IDIUse=1 WtCom= 1.00D+00 WtEn= 0.00D+00
 Coeff-Com:  0.342D-03 0.671D-03 0.558D-02 0.290D-02-0.284D-02-0.563D-01
 Coeff-Com: -0.590D-01 0.111D+01
 Coeff:      0.342D-03 0.671D-03 0.558D-02 0.290D-02-0.284D-02-0.563D-01
 Coeff:     -0.590D-01 0.111D+01
 Gap=     0.195 Goal=   None    Shift=    0.000
 Gap=     0.247 Goal=   None    Shift=    0.000
 RMSDP=1.03D-05 MaxDP=1.55D-04 DE=-3.21D-06 OVMax= 5.24D-04

 Cycle   9  Pass 0  IDiag  1:
 E= -165.223791330689     Delta-E=       -0.000000218211 Rises=F Damp=F
 DIIS: error= 9.43D-06 at cycle   9 NSaved=   9.
 NSaved= 9 IEnMin= 9 EnMin= -165.223791330689     IErMin= 9 ErrMin= 9.43D-06
 ErrMax= 9.43D-06 EMaxC= 1.00D-01 BMatC= 2.05D-08 BMatP= 2.03D-07
 IDIUse=1 WtCom= 1.00D+00 WtEn= 0.00D+00
 Coeff-Com: -0.565D-04 0.146D-03 0.184D-02 0.301D-02 0.564D-02-0.125D-01
 Coeff-Com: -0.848D-01-0.136D-01 0.110D+01
 Coeff:     -0.565D-04 0.146D-03 0.184D-02 0.301D-02 0.564D-02-0.125D-01
 Coeff:     -0.848D-01-0.136D-01 0.110D+01
 Gap=     0.195 Goal=   None    Shift=    0.000
 Gap=     0.247 Goal=   None    Shift=    0.000
 RMSDP=3.51D-06 MaxDP=4.14D-05 DE=-2.18D-07 OVMax= 1.78D-04

 Initial convergence to 1.0D-05 achieved.  Increase integral accuracy.
 Cycle  10  Pass 1  IDiag  1:
 E= -165.223788544666     Delta-E=        0.000002786024 Rises=F Damp=F
 DIIS: error= 2.33D-04 at cycle   1 NSaved=   1.
 NSaved= 1 IEnMin= 1 EnMin= -165.223788544666     IErMin= 1 ErrMin= 2.33D-04
 ErrMax= 2.33D-04 EMaxC= 1.00D-01 BMatC= 2.10D-05 BMatP= 2.10D-05
 IDIUse=3 WtCom= 9.98D-01 WtEn= 2.33D-03
 Coeff-Com:  0.100D+01
 Coeff-En:   0.100D+01
 Coeff:      0.100D+01
 Gap=     0.195 Goal=   None    Shift=    0.000
 Gap=     0.247 Goal=   None    Shift=    0.000
 RMSDP=3.51D-06 MaxDP=4.14D-05 DE= 2.79D-06 OVMax= 6.63D-04

 Cycle  11  Pass 1  IDiag  1:
 E= -165.223792559386     Delta-E=       -0.000004014720 Rises=F Damp=F
 DIIS: error= 2.08D-05 at cycle   2 NSaved=   2.
 NSaved= 2 IEnMin= 2 EnMin= -165.223792559386     IErMin= 2 ErrMin= 2.08D-05
 ErrMax= 2.08D-05 EMaxC= 1.00D-01 BMatC= 1.45D-07 BMatP= 2.10D-05
 IDIUse=1 WtCom= 1.00D+00 WtEn= 0.00D+00
 Coeff-Com:  0.128D-01 0.987D+00
 Coeff:      0.128D-01 0.987D+00
 Gap=     0.195 Goal=   None    Shift=    0.000
 Gap=     0.247 Goal=   None    Shift=    0.000
 RMSDP=6.28D-06 MaxDP=1.13D-04 DE=-4.01D-06 OVMax= 1.08D-04

 Cycle  12  Pass 1  IDiag  1:
 E= -165.223792522907     Delta-E=        0.000000036479 Rises=F Damp=F
 DIIS: error= 4.07D-05 at cycle   3 NSaved=   3.
 NSaved= 3 IEnMin= 2 EnMin= -165.223792559386     IErMin= 2 ErrMin= 2.08D-05
 ErrMax= 4.07D-05 EMaxC= 1.00D-01 BMatC= 3.91D-07 BMatP= 1.45D-07
 IDIUse=1 WtCom= 1.00D+00 WtEn= 0.00D+00
 Coeff-Com:  0.165D-02 0.644D+00 0.355D+00
 Coeff:      0.165D-02 0.644D+00 0.355D+00
 Gap=     0.195 Goal=   None    Shift=    0.000
 Gap=     0.247 Goal=   None    Shift=    0.000
 RMSDP=3.10D-06 MaxDP=3.97D-05 DE= 3.65D-08 OVMax= 1.10D-04

 Cycle  13  Pass 1  IDiag  1:
 E= -165.223792587966     Delta-E=       -0.000000065059 Rises=F Damp=F
 DIIS: error= 1.98D-05 at cycle   4 NSaved=   4.
 NSaved= 4 IEnMin= 4 EnMin= -165.223792587966     IErMin= 4 ErrMin= 1.98D-05
 ErrMax= 1.98D-05 EMaxC= 1.00D-01 BMatC= 4.16D-08 BMatP= 1.45D-07
 IDIUse=1 WtCom= 1.00D+00 WtEn= 0.00D+00
 Coeff-Com: -0.214D-02 0.157D+00 0.239D+00 0.606D+00
 Coeff:     -0.214D-02 0.157D+00 0.239D+00 0.606D+00
 Gap=     0.195 Goal=   None    Shift=    0.000
 Gap=     0.247 Goal=   None    Shift=    0.000
 RMSDP=1.68D-06 MaxDP=1.90D-05 DE=-6.51D-08 OVMax= 7.56D-05

 Cycle  14  Pass 1  IDiag  1:
 E= -165.223792594951     Delta-E=       -0.000000006984 Rises=F Damp=F
 DIIS: error= 1.01D-05 at cycle   5 NSaved=   5.
 NSaved= 5 IEnMin= 5 EnMin= -165.223792594951     IErMin= 5 ErrMin= 1.01D-05
 ErrMax= 1.01D-05 EMaxC= 1.00D-01 BMatC= 1.36D-08 BMatP= 4.16D-08
 IDIUse=1 WtCom= 1.00D+00 WtEn= 0.00D+00
 Coeff-Com: -0.182D-02-0.418D-02 0.944D-01 0.441D+00 0.471D+00
 Coeff:     -0.182D-02-0.418D-02 0.944D-01 0.441D+00 0.471D+00
 Gap=     0.195 Goal=   None    Shift=    0.000
 Gap=     0.247 Goal=   None    Shift=    0.000
 RMSDP=6.04D-07 MaxDP=7.39D-06 DE=-6.98D-09 OVMax= 2.30D-05

 Cycle  15  Pass 1  IDiag  1:
 E= -165.223792598074     Delta-E=       -0.000000003124 Rises=F Damp=F
 DIIS: error= 1.75D-06 at cycle   6 NSaved=   6.
 NSaved= 6 IEnMin= 6 EnMin= -165.223792598074     IErMin= 6 ErrMin= 1.75D-06
 ErrMax= 1.75D-06 EMaxC= 1.00D-01 BMatC= 5.55D-10 BMatP= 1.36D-08
 IDIUse=1 WtCom= 1.00D+00 WtEn= 0.00D+00
 Coeff-Com: -0.729D-03-0.143D-01 0.227D-01 0.162D+00 0.208D+00 0.622D+00
 Coeff:     -0.729D-03-0.143D-01 0.227D-01 0.162D+00 0.208D+00 0.622D+00
 Gap=     0.195 Goal=   None    Shift=    0.000
 Gap=     0.247 Goal=   None    Shift=    0.000
 RMSDP=1.78D-07 MaxDP=2.50D-06 DE=-3.12D-09 OVMax= 8.62D-06

 Cycle  16  Pass 1  IDiag  1:
 E= -165.223792598264     Delta-E=       -0.000000000189 Rises=F Damp=F
 DIIS: error= 5.72D-07 at cycle   7 NSaved=   7.
 NSaved= 7 IEnMin= 7 EnMin= -165.223792598264     IErMin= 7 ErrMin= 5.72D-07
 ErrMax= 5.72D-07 EMaxC= 1.00D-01 BMatC= 8.73D-11 BMatP= 5.55D-10
 IDIUse=1 WtCom= 1.00D+00 WtEn= 0.00D+00
 Coeff-Com:  0.290D-03-0.468D-02-0.158D-01-0.681D-01-0.841D-01 0.125D+00
 Coeff-Com:  0.105D+01
 Coeff:      0.290D-03-0.468D-02-0.158D-01-0.681D-01-0.841D-01 0.125D+00
 Coeff:      0.105D+01
 Gap=     0.195 Goal=   None    Shift=    0.000
 Gap=     0.247 Goal=   None    Shift=    0.000
 RMSDP=1.64D-07 MaxDP=2.27D-06 DE=-1.89D-10 OVMax= 7.62D-06

 Cycle  17  Pass 1  IDiag  1:
 E= -165.223792598343     Delta-E=       -0.000000000079 Rises=F Damp=F
 DIIS: error= 2.83D-07 at cycle   8 NSaved=   8.
 NSaved= 8 IEnMin= 8 EnMin= -165.223792598343     IErMin= 8 ErrMin= 2.83D-07
 ErrMax= 2.83D-07 EMaxC= 1.00D-01 BMatC= 1.09D-11 BMatP= 8.73D-11
 IDIUse=1 WtCom= 1.00D+00 WtEn= 0.00D+00
 Coeff-Com:  0.162D-03 0.294D-02-0.303D-02-0.339D-01-0.437D-01-0.983D-01
 Coeff-Com: -0.375D-01 0.121D+01
 Coeff:      0.162D-03 0.294D-02-0.303D-02-0.339D-01-0.437D-01-0.983D-01
 Coeff:     -0.375D-01 0.121D+01
 Gap=     0.195 Goal=   None    Shift=    0.000
 Gap=     0.247 Goal=   None    Shift=    0.000
 RMSDP=9.89D-08 MaxDP=1.40D-06 DE=-7.92D-11 OVMax= 4.52D-06

 Cycle  18  Pass 1  IDiag  1:
 E= -165.223792598362     Delta-E=       -0.000000000019 Rises=F Damp=F
 DIIS: error= 1.52D-07 at cycle   9 NSaved=   9.
 NSaved= 9 IEnMin= 9 EnMin= -165.223792598362     IErMin= 9 ErrMin= 1.52D-07
 ErrMax= 1.52D-07 EMaxC= 1.00D-01 BMatC= 1.79D-12 BMatP= 1.09D-11
 IDIUse=1 WtCom= 1.00D+00 WtEn= 0.00D+00
 Coeff-Com: -0.387D-04 0.410D-03 0.152D-02 0.102D-01 0.878D-02-0.117D-01
 Coeff-Com: -0.154D+00-0.146D-01 0.116D+01
 Coeff:     -0.387D-04 0.410D-03 0.152D-02 0.102D-01 0.878D-02-0.117D-01
 Coeff:     -0.154D+00-0.146D-01 0.116D+01
 Gap=     0.195 Goal=   None    Shift=    0.000
 Gap=     0.247 Goal=   None    Shift=    0.000
 RMSDP=3.68D-08 MaxDP=5.10D-07 DE=-1.88D-11 OVMax= 1.69D-06

 Cycle  19  Pass 1  IDiag  1:
 E= -165.223792598366     Delta-E=       -0.000000000004 Rises=F Damp=F
 DIIS: error= 5.32D-08 at cycle  10 NSaved=  10.
 NSaved=10 IEnMin=10 EnMin= -165.223792598366     IErMin=10 ErrMin= 5.32D-08
 ErrMax= 5.32D-08 EMaxC= 1.00D-01 BMatC= 2.22D-13 BMatP= 1.79D-12
 IDIUse=1 WtCom= 1.00D+00 WtEn= 0.00D+00
 Coeff-Com: -0.197D-04-0.414D-03 0.416D-03 0.464D-02 0.550D-02 0.126D-01
 Coeff-Com:  0.314D-01-0.191D+00-0.177D+00 0.131D+01
 Coeff:     -0.197D-04-0.414D-03 0.416D-03 0.464D-02 0.550D-02 0.126D-01
 Coeff:      0.314D-01-0.191D+00-0.177D+00 0.131D+01
 Gap=     0.195 Goal=   None    Shift=    0.000
 Gap=     0.247 Goal=   None    Shift=    0.000
 RMSDP=1.47D-08 MaxDP=1.80D-07 DE=-3.75D-12 OVMax= 6.40D-07

 Cycle  20  Pass 1  IDiag  1:
 E= -165.223792598365     Delta-E=        0.000000000000 Rises=F Damp=F
 DIIS: error= 2.30D-08 at cycle  11 NSaved=  11.
 NSaved=11 IEnMin=10 EnMin= -165.223792598366     IErMin=11 ErrMin= 2.30D-08
 ErrMax= 2.30D-08 EMaxC= 1.00D-01 BMatC= 3.05D-14 BMatP= 2.22D-13
 IDIUse=1 WtCom= 1.00D+00 WtEn= 0.00D+00
 Coeff-Com:  0.236D-05-0.807D-04-0.118D-03-0.109D-02-0.519D-03 0.143D-02
 Coeff-Com:  0.237D-01-0.161D-01-0.140D+00 0.101D+00 0.103D+01
 Coeff:      0.236D-05-0.807D-04-0.118D-03-0.109D-02-0.519D-03 0.143D-02
 Coeff:      0.237D-01-0.161D-01-0.140D+00 0.101D+00 0.103D+01
 Gap=     0.195 Goal=   None    Shift=    0.000
 Gap=     0.247 Goal=   None    Shift=    0.000
 RMSDP=3.52D-09 MaxDP=5.49D-08 DE= 1.14D-13 OVMax= 1.79D-07

 SCF Done:  E(UM06) =  -165.223792598     A.U. after   20 cycles
             Convg  =    0.3521D-08             -V/T =  2.0019
 <Sx>= 0.0000 <Sy>= 0.0000 <Sz>= 0.5000 <S**2>= 0.7570 S= 0.5035
 <L.S>=  0.00000000000    
 KE= 1.649066238076D+02 PE=-5.194000270249D+02 EE= 1.227882831283D+02
 Annihilation of the first spin contaminant:
 S**2 before annihilation     0.7570,   after     0.7500
 Leave Link  502 at Tue Apr 29 14:52:20 2014, MaxMem=   65536000 cpu:      16.9
 (Enter /apps/gaussian/g09/l801.exe)
 Range of M.O.s used for correlation:     1    66
 NBasis=    66 NAE=    12 NBE=    11 NFC=     0 NFV=     0
 NROrb=     66 NOA=    12 NOB=    11 NVA=    54 NVB=    55

 **** Warning!!: The largest alpha MO coefficient is  0.10528175D+02


 **** Warning!!: The largest beta MO coefficient is  0.10576029D+02

 Leave Link  801 at Tue Apr 29 14:52:20 2014, MaxMem=   65536000 cpu:       0.1
 (Enter /apps/gaussian/g09/l1101.exe)
 Using compressed storage, NAtomX=     5.
 Will process   6 centers per pass.
 Leave Link 1101 at Tue Apr 29 14:52:20 2014, MaxMem=   65536000 cpu:       1.4
 (Enter /apps/gaussian/g09/l1102.exe)
 Symmetrizing basis deriv contribution to polar:
 IMax=3 JMax=2 DiffMx= 0.00D+00
 Leave Link 1102 at Tue Apr 29 14:52:20 2014, MaxMem=   65536000 cpu:       0.2
 (Enter /apps/gaussian/g09/l1110.exe)
 Forming Gx(P) for the SCF density, NAtomX=     5.
 Integral derivatives from FoFDir/FoFCou, PRISM(SPDF).
 Do as many integral derivatives as possible in FoFDir.
 G2DrvN: MDV=      65535856.
 G2DrvN: will do     6 centers at a time, making    1 passes doing MaxLOS=2.
 Calling FoFCou, ICntrl=  3107 FMM=F I1Cent=   0 AccDes= 0.00D+00.
 FoFCou: FMM=F IPFlag=           0 FMFlag=      100000 FMFlg1=           0
         NFxFlg=           0 DoJE=F BraDBF=F KetDBF=F FulRan=T
         Omega=  0.000000  0.000000  1.000000  0.000000  0.000000 ICntrl=    3107 IOpCl=  1
         NMat0=    1 NMatS0=    1 NMatT0=    0 NMatD0=    1 NMtDS0=    0 NMtDT0=    0
         I1Cent=           0 NGrid=           0.
 Symmetry not used in FoFCou.
 FoFDir/FoFCou used for L=0 through L=2.
 End of G2Drv Frequency-dependent properties file   721 does not exist.
 End of G2Drv Frequency-dependent properties file   722 does not exist.
 Leave Link 1110 at Tue Apr 29 14:52:22 2014, MaxMem=   65536000 cpu:      17.7
 (Enter /apps/gaussian/g09/l1002.exe)
 Minotr:  UHF open shell wavefunction.
          IDoAtm=11111
          Direct CPHF calculation.
          Differentiating once with respect to electric field.
                with respect to dipole field.
          Differentiating once with respect to nuclear coordinates.
          Requested convergence is 1.0D-08 RMS, and 1.0D-07 maximum.
          Secondary convergence is 1.0D-12 RMS, and 1.0D-12 maximum.
          NewPWx=T KeepS1=F KeepF1=F KeepIn=T MapXYZ=F SortEE=F KeepMc=T.
          MDV=      65535946 using IRadAn=       2.
 Generate precomputed XC quadrature information.
          Keep R1 and R2 ints in memory in canonical form, NReq=6656460.
 Symmetry not used in FoFDir.
 MinBra= 0 MaxBra= 2 Meth= 1.
 IRaf=       0 NMat=   1 IRICut=       1 DoRegI=T DoRafI=F ISym2E= 0 JSym2E=0.
          Solving linear equations simultaneously, MaxMat=       0.
          There are    18 degrees of freedom in the 1st order CPHF.  IDoFFX=5.
     15 vectors produced by pass  0 Test12= 6.96D-15 5.56D-09 XBig12= 1.60D+02 5.35D+00.
 AX will form    15 AO Fock derivatives at one time.
     15 vectors produced by pass  1 Test12= 6.96D-15 5.56D-09 XBig12= 6.69D+01 1.38D+00.
     15 vectors produced by pass  2 Test12= 6.96D-15 5.56D-09 XBig12= 1.09D+00 2.16D-01.
     15 vectors produced by pass  3 Test12= 6.96D-15 5.56D-09 XBig12= 1.97D-02 3.62D-02.
     15 vectors produced by pass  4 Test12= 6.96D-15 5.56D-09 XBig12= 3.13D-04 2.96D-03.
     15 vectors produced by pass  5 Test12= 6.96D-15 5.56D-09 XBig12= 3.17D-06 4.70D-04.
     13 vectors produced by pass  6 Test12= 6.96D-15 5.56D-09 XBig12= 1.87D-08 2.01D-05.
      6 vectors produced by pass  7 Test12= 6.96D-15 5.56D-09 XBig12= 5.39D-11 1.17D-06.
      2 vectors produced by pass  8 Test12= 6.96D-15 5.56D-09 XBig12= 1.31D-13 6.59D-08.
 Inverted reduced A of dimension   111 with in-core refinement.
 FullF1:  Do perturbations    1 to     3.
 Isotropic polarizability for W=    0.000000       26.68 Bohr**3.
 End of Minotr Frequency-dependent properties file   721 does not exist.
 End of Minotr Frequency-dependent properties file   722 does not exist.
 Leave Link 1002 at Tue Apr 29 14:52:24 2014, MaxMem=   65536000 cpu:      23.9
 (Enter /apps/gaussian/g09/l601.exe)
 Copying SCF densities to generalized density rwf, IOpCl= 1 IROHF=0.

 **********************************************************************

            Population analysis using the SCF density.

 **********************************************************************

 Orbital symmetries:
 Alpha Orbitals:
       Occupied  (A) (A) (A) (A) (A) (A) (A) (A) (A) (A) (A) (A)
       Virtual   (A) (A) (A) (A) (A) (A) (A) (A) (A) (A) (A) (A)
                 (A) (A) (A) (A) (A) (A) (A) (A) (A) (A) (A) (A)
                 (A) (A) (A) (A) (A) (A) (A) (A) (A) (A) (A) (A)
                 (A) (A) (A) (A) (A) (A) (A) (A) (A) (A) (A) (A)
                 (A) (A) (A) (A) (A) (A)
 Beta  Orbitals:
       Occupied  (A) (A) (A) (A) (A) (A) (A) (A) (A) (A) (A)
       Virtual   (A) (A) (A) (A) (A) (A) (A) (A) (A) (A) (A) (A)
                 (A) (A) (A) (A) (A) (A) (A) (A) (A) (A) (A) (A)
                 (A) (A) (A) (A) (A) (A) (A) (A) (A) (A) (A) (A)
                 (A) (A) (A) (A) (A) (A) (A) (A) (A) (A) (A) (A)
                 (A) (A) (A) (A) (A) (A) (A)
 The electronic state is 2-A.
 Alpha  occ. eigenvalues --  -14.57245 -14.47223 -14.45204  -1.17703  -1.00942
 Alpha  occ. eigenvalues --   -0.65353  -0.55693  -0.54658  -0.48087  -0.38218
 Alpha  occ. eigenvalues --   -0.32149  -0.23123
 Alpha virt. eigenvalues --   -0.03658   0.00827   0.03800   0.22584   0.25794
 Alpha virt. eigenvalues --    0.36671   0.41988   0.45487   0.50138   0.52702
 Alpha virt. eigenvalues --    0.60387   0.64533   0.67515   0.68917   0.74253
 Alpha virt. eigenvalues --    0.76994   0.92303   1.02589   1.11668   1.22089
 Alpha virt. eigenvalues --    1.35103   1.38578   1.45620   1.49438   1.64501
 Alpha virt. eigenvalues --    1.65672   1.70277   1.80557   1.84933   2.07643
 Alpha virt. eigenvalues --    2.10317   2.17458   2.24165   2.34342   2.38987
 Alpha virt. eigenvalues --    2.43650   2.47252   2.66320   2.85236   3.02322
 Alpha virt. eigenvalues --    3.18219   3.49174   3.51281   3.63065   3.87956
 Alpha virt. eigenvalues --    3.90253   3.90847   4.08586   4.27655   4.36803
 Alpha virt. eigenvalues --    5.02779  34.96306  35.47187  36.17903
  Beta  occ. eigenvalues --  -14.57234 -14.46993 -14.45065  -1.17300  -1.00522
  Beta  occ. eigenvalues --   -0.65211  -0.54776  -0.54505  -0.47399  -0.36248
  Beta  occ. eigenvalues --   -0.31052
  Beta virt. eigenvalues --   -0.06358  -0.02485   0.02080   0.05011   0.22990
  Beta virt. eigenvalues --    0.36418   0.39709   0.41850   0.45664   0.50151
  Beta virt. eigenvalues --    0.53752   0.60584   0.65071   0.67802   0.68942
  Beta virt. eigenvalues --    0.74410   0.77796   0.92736   1.03276   1.12125
  Beta virt. eigenvalues --    1.22862   1.40645   1.45615   1.46776   1.51471
  Beta virt. eigenvalues --    1.65053   1.66215   1.70807   1.83975   1.88171
  Beta virt. eigenvalues --    2.08239   2.10996   2.20869   2.25140   2.37982
  Beta virt. eigenvalues --    2.39339   2.47361   2.64835   2.67932   2.85246
  Beta virt. eigenvalues --    3.02942   3.18486   3.49028   3.51499   3.63390
  Beta virt. eigenvalues --    3.87825   3.90676   3.91483   4.08505   4.27488
  Beta virt. eigenvalues --    4.36906   5.02748  34.96534  35.47405  36.18107
     Alpha Molecular Orbital Coefficients:
                           1         2         3         4         5
                           O         O         O         O         O
     Eigenvalues --   -14.57245 -14.47223 -14.45204  -1.17703  -1.00942
   1 1   N  1S          0.55747  -0.00326  -0.00112  -0.10549  -0.00637
   2        2S          0.46461  -0.00207  -0.00066  -0.16361  -0.01042
   3        2PX        -0.00023   0.00104  -0.00078   0.03228  -0.17939
   4        2PY         0.00019   0.00017  -0.00002   0.01383  -0.02095
   5        2PZ        -0.00015   0.00002  -0.00007  -0.00329  -0.00743
   6        3S          0.01837  -0.00284  -0.00093   0.46445   0.03514
   7        3PX         0.00236  -0.00579   0.00288   0.03208  -0.23753
   8        3PY         0.00083  -0.00101   0.00007   0.01642  -0.02711
   9        3PZ        -0.00015  -0.00010   0.00026  -0.00468  -0.00992
  10        4S         -0.00336   0.00347   0.00195   0.21126   0.02723
  11        4PX         0.00050   0.00788  -0.00818  -0.00578  -0.06888
  12        4PY        -0.00015   0.00099  -0.00038   0.00290  -0.01100
  13        4PZ         0.00008   0.00035  -0.00040  -0.00132  -0.00166
  14        5D 0       -0.00239   0.00137   0.00070  -0.01210  -0.00132
  15        5D+1        0.00040  -0.00002  -0.00035   0.00188   0.00121
  16        5D-1        0.00003  -0.00001   0.00001  -0.00067  -0.00017
  17        5D+2        0.00400  -0.00219  -0.00129   0.01963   0.00275
  18        5D-2        0.00099  -0.00094   0.00005   0.00500  -0.00202
  19 2   N  1S          0.00303   0.55743   0.00051  -0.06745   0.06520
  20        2S          0.00330   0.46514   0.00045  -0.10382   0.10159
  21        2PX        -0.00079  -0.00179  -0.00008  -0.08198   0.06898
  22        2PY        -0.00018  -0.00037   0.00003  -0.01547   0.01558
  23        2PZ         0.00001  -0.00001  -0.00003  -0.00106  -0.00015
  24        3S         -0.00321   0.01695  -0.00003   0.28951  -0.28697
  25        3PX         0.00557  -0.00412   0.00010  -0.10841   0.08945
  26        3PY         0.00121  -0.00078  -0.00014  -0.01998   0.02111
  27        3PZ        -0.00002  -0.00004   0.00011  -0.00162  -0.00060
  28        4S         -0.00106  -0.01193   0.00544   0.11368  -0.13734
  29        4PX        -0.00026   0.00404  -0.00179  -0.02235   0.02463
  30        4PY         0.00002   0.00096  -0.00064  -0.00535   0.00599
  31        4PZ        -0.00003  -0.00006  -0.00001   0.00020  -0.00031
  32        5D 0        0.00158  -0.00126   0.00004  -0.00879   0.00795
  33        5D+1        0.00003   0.00006  -0.00008   0.00046   0.00028
  34        5D-1        0.00001   0.00001  -0.00003  -0.00019   0.00025
  35        5D+2       -0.00247   0.00202  -0.00014   0.01349  -0.01139
  36        5D-2       -0.00116   0.00078   0.00014   0.00526  -0.00620
  37 3   N  1S          0.00104  -0.00051   0.55759  -0.04624  -0.08505
  38        2S          0.00123  -0.00041   0.46504  -0.07120  -0.13229
  39        2PX         0.00089   0.00013   0.00137   0.04745   0.05993
  40        2PY         0.00008   0.00006  -0.00070  -0.00372  -0.01509
  41        2PZ         0.00001  -0.00003   0.00094   0.01072   0.02404
  42        3S         -0.00103  -0.00003   0.01676   0.19774   0.37111
  43        3PX        -0.00381  -0.00028   0.00062   0.06931   0.09412
  44        3PY        -0.00039  -0.00019  -0.00072  -0.00419  -0.02192
  45        3PZ         0.00002   0.00009   0.00106   0.01463   0.03502
  46        4S          0.00041   0.00399  -0.01255   0.07525   0.20727
  47        4PX         0.00096   0.00182  -0.00339   0.00185   0.02222
  48        4PY         0.00008   0.00001  -0.00010  -0.00531  -0.00664
  49        4PZ         0.00004   0.00012  -0.00103   0.00714   0.01467
  50        5D 0        0.00104   0.00007  -0.00051  -0.00475  -0.00765
  51        5D+1       -0.00068   0.00005  -0.00022   0.00240   0.00473
  52        5D-1       -0.00022  -0.00000  -0.00053  -0.00153  -0.00372
  53        5D+2       -0.00191  -0.00011   0.00081   0.00837   0.01368
  54        5D-2        0.00033  -0.00016   0.00049   0.00007  -0.00158
  55 4   H  1S         -0.00031  -0.00002  -0.00006   0.02114   0.05583
  56        2S         -0.00077   0.00002  -0.00140   0.01883   0.05294
  57        3S          0.00071   0.00045   0.00138  -0.01174  -0.00933
  58        4PX        -0.00019   0.00011  -0.00076   0.00455   0.00914
  59        4PY        -0.00051   0.00001  -0.00129   0.00340   0.00895
  60        4PZ         0.00048   0.00000   0.00133  -0.00291  -0.00825
  61 5   H  1S          0.00008   0.00003  -0.00011   0.00137   0.00477
  62        2S         -0.00021  -0.00012   0.00045   0.00360   0.00439
  63        3S          0.00024   0.00015   0.00021  -0.00279  -0.00032
  64        4PX        -0.00001  -0.00001   0.00030   0.00016  -0.00029
  65        4PY        -0.00000  -0.00001  -0.00031  -0.00008  -0.00030
  66        4PZ        -0.00001  -0.00000  -0.00004  -0.00004  -0.00001
                           6         7         8         9        10
                           O         O         O         O         O
     Eigenvalues --    -0.65353  -0.55693  -0.54658  -0.48087  -0.38218
   1 1   N  1S          0.04176   0.02463  -0.01917   0.02764   0.00663
   2        2S          0.06660   0.03978  -0.03088   0.04465   0.01087
   3        2PX         0.09517  -0.00947  -0.02719  -0.11992   0.02774
   4        2PY        -0.03342   0.21161   0.02702  -0.04455  -0.06249
   5        2PZ         0.05436  -0.00591   0.21588   0.02571   0.03615
   6        3S         -0.20709  -0.12242   0.09545  -0.14229  -0.03771
   7        3PX         0.13199  -0.01690  -0.04022  -0.16233   0.03591
   8        3PY        -0.05301   0.32620   0.04233  -0.06475  -0.09515
   9        3PZ         0.08371  -0.00832   0.33212   0.03949   0.05565
  10        4S         -0.21171  -0.13375   0.10247  -0.16671  -0.01682
  11        4PX         0.07356   0.01231  -0.03165  -0.12886   0.12365
  12        4PY        -0.03438   0.22671   0.02292  -0.05462  -0.06679
  13        4PZ         0.04812  -0.01285   0.23350   0.03412   0.04350
  14        5D 0       -0.00146  -0.00020  -0.00241  -0.00028   0.00167
  15        5D+1       -0.00583  -0.00103   0.00547   0.00386   0.01776
  16        5D-1        0.00116  -0.00145   0.00381   0.00110   0.00161
  17        5D+2        0.00205  -0.00744   0.00021   0.00221   0.00694
  18        5D-2        0.00606   0.00203  -0.00034  -0.00236  -0.03578
  19 2   N  1S         -0.03113  -0.02107   0.01809  -0.07527   0.00040
  20        2S         -0.04929  -0.03374   0.02891  -0.11987   0.00043
  21        2PX         0.00565  -0.00303  -0.02592   0.20904   0.02453
  22        2PY        -0.01944   0.12807   0.01562   0.02101  -0.13413
  23        2PZ         0.02103  -0.00315   0.13244   0.02576   0.06364
  24        3S          0.14333   0.10026  -0.08528   0.34067  -0.00023
  25        3PX         0.00992  -0.00984  -0.03543   0.28197   0.03782
  26        3PY        -0.03086   0.19743   0.02525   0.02521  -0.20177
  27        3PZ         0.03369  -0.00492   0.20508   0.03882   0.09545
  28        4S          0.13267   0.08895  -0.09349   0.58374  -0.08433
  29        4PX        -0.00102   0.00356  -0.02074   0.14408   0.06273
  30        4PY        -0.01099   0.10409   0.01389   0.00883  -0.16080
  31        4PZ         0.01229  -0.00065   0.10805   0.02462   0.08160
  32        5D 0       -0.00027   0.00082  -0.00152   0.01282  -0.00096
  33        5D+1       -0.00700   0.00078  -0.03372  -0.00524  -0.01024
  34        5D-1       -0.00147  -0.00024  -0.00654  -0.00181  -0.00195
  35        5D+2       -0.00262   0.01080   0.00425  -0.02324  -0.00686
  36        5D-2        0.00608  -0.03111  -0.00400  -0.00483   0.01991
  37 3   N  1S         -0.04603  -0.02780   0.02531   0.00264  -0.02834
  38        2S         -0.07247  -0.04441   0.04036   0.00415  -0.04526
  39        2PX        -0.15467  -0.04244   0.03230   0.06813  -0.04403
  40        2PY        -0.07803   0.09912   0.02147  -0.00333   0.15103
  41        2PZ         0.06707   0.00021   0.09675   0.00425  -0.07934
  42        3S          0.20025   0.12942  -0.11804  -0.00752   0.12678
  43        3PX        -0.22294  -0.05678   0.04256   0.10086  -0.06149
  44        3PY        -0.11641   0.15395   0.03398  -0.00688   0.22016
  45        3PZ         0.10164   0.00280   0.15049   0.00731  -0.11191
  46        4S          0.25811   0.17178  -0.14054  -0.05569   0.30519
  47        4PX        -0.07716  -0.03439   0.02873   0.05696  -0.03207
  48        4PY        -0.05432   0.08719   0.02532   0.00032   0.19980
  49        4PZ         0.05436   0.01083   0.08491  -0.00175  -0.08466
  50        5D 0        0.01152   0.00266   0.00878  -0.00286  -0.00085
  51        5D+1       -0.00469  -0.00344   0.02695   0.00808  -0.00498
  52        5D-1       -0.01269   0.00604  -0.00094   0.00086   0.01229
  53        5D+2       -0.01995   0.00050   0.00118   0.00685   0.00053
  54        5D-2        0.00167   0.02613   0.00161  -0.00686   0.00416
  55 4   H  1S          0.15994  -0.00128  -0.00839  -0.02973  -0.08704
  56        2S          0.19514  -0.01229  -0.00550  -0.03917  -0.15147
  57        3S          0.03650   0.00007  -0.00439  -0.01511  -0.04912
  58        4PX         0.00522  -0.00669   0.00413   0.00340  -0.01589
  59        4PY         0.01467   0.00551   0.00244  -0.00209   0.00035
  60        4PZ        -0.01377   0.00190   0.00765   0.00180   0.00490
  61 5   H  1S          0.01332   0.03084  -0.00396  -0.01228   0.11210
  62        2S          0.01809   0.04348  -0.00732  -0.02215   0.18057
  63        3S          0.01001   0.02459  -0.00445  -0.01052   0.15415
  64        4PX        -0.00040   0.00172   0.00015  -0.00050   0.00077
  65        4PY        -0.00248  -0.00133   0.00098   0.00120  -0.00189
  66        4PZ         0.00032  -0.00007   0.00137   0.00014  -0.00067
                          11        12        13        14        15
                           O         O         V         V         V
     Eigenvalues --    -0.32149  -0.23123  -0.03658   0.00827   0.03800
   1 1   N  1S         -0.00591  -0.00818   0.00468   0.00224  -0.00904
   2        2S         -0.00970  -0.01336   0.00704   0.00363  -0.01462
   3        2PX        -0.01854  -0.01477  -0.01433  -0.02789  -0.01034
   4        2PY        -0.00716  -0.05354   0.14831   0.15676  -0.03542
   5        2PZ        -0.02498  -0.01204  -0.15402   0.17098   0.02224
   6        3S          0.03274   0.03904  -0.00233  -0.00942   0.02627
   7        3PX        -0.02699  -0.01849  -0.03811  -0.04552  -0.04591
   8        3PY        -0.00878  -0.08235   0.22758   0.24280  -0.05408
   9        3PZ        -0.03691  -0.01909  -0.23873   0.26475   0.03322
  10        4S          0.01909   0.06285  -0.20366  -0.05398   0.14920
  11        4PX        -0.00131  -0.03446   0.13736  -0.05983   0.31427
  12        4PY        -0.01121  -0.10170   0.34055   0.37739  -0.08013
  13        4PZ        -0.02756  -0.02238  -0.33161   0.41349   0.08636
  14        5D 0       -0.00369   0.00198  -0.00095   0.00059   0.01350
  15        5D+1       -0.04761   0.00717   0.02130  -0.00728   0.00196
  16        5D-1       -0.00642   0.00291   0.00213  -0.00202  -0.00514
  17        5D+2        0.00496  -0.01216   0.00822   0.00504  -0.02160
  18        5D-2       -0.01808   0.03289  -0.01508  -0.00316  -0.01180
  19 2   N  1S          0.00023   0.00220  -0.00227  -0.00092   0.01312
  20        2S          0.00041   0.00383  -0.00408  -0.00152   0.02185
  21        2PX         0.02508  -0.01016   0.01277   0.02082   0.03774
  22        2PY        -0.06061   0.12646  -0.14491  -0.12839   0.04148
  23        2PZ        -0.15952   0.02370   0.15525  -0.14432  -0.02562
  24        3S         -0.00285  -0.01715   0.01882   0.00591  -0.09286
  25        3PX         0.03594  -0.01499   0.01503   0.02899   0.05550
  26        3PY        -0.09054   0.18612  -0.20866  -0.18236   0.06281
  27        3PZ        -0.23779   0.03424   0.22185  -0.20407  -0.03895
  28        4S          0.00308   0.02819  -0.10067   0.00326  -0.28729
  29        4PX         0.03230  -0.03918   0.08133   0.05904   0.14012
  30        4PY        -0.08611   0.21928  -0.32876  -0.33552   0.12405
  31        4PZ        -0.22927   0.04324   0.36790  -0.37940  -0.06673
  32        5D 0        0.00070   0.00090  -0.00107   0.00016  -0.00112
  33        5D+1        0.01889  -0.00114   0.00557  -0.00951  -0.00046
  34        5D-1        0.00391  -0.00016   0.00109  -0.00209  -0.00106
  35        5D+2       -0.00390   0.00123   0.00413   0.00397   0.00186
  36        5D-2        0.00584  -0.00787  -0.00489  -0.00871   0.00164
  37 3   N  1S          0.02474   0.03041   0.02137   0.00476   0.03541
  38        2S          0.03972   0.04895   0.03388   0.00758   0.05592
  39        2PX         0.02121   0.03425   0.07627   0.03000  -0.00533
  40        2PY         0.07594  -0.11447  -0.05114  -0.11998   0.11426
  41        2PZ         0.20064  -0.02974   0.04106  -0.11630  -0.07937
  42        3S         -0.11983  -0.15125  -0.08383  -0.01913  -0.15131
  43        3PX         0.02766   0.04041   0.10906   0.04116  -0.05276
  44        3PY         0.11329  -0.16687  -0.07068  -0.16873   0.14500
  45        3PZ         0.29402  -0.04902   0.04945  -0.16093  -0.10034
  46        4S         -0.16206  -0.26138  -0.24392  -0.08579  -0.56643
  47        4PX         0.03488   0.06301   0.24296   0.08125   0.26507
  48        4PY         0.13193  -0.20084  -0.09237  -0.31179   0.37419
  49        4PZ         0.32220  -0.04584   0.09359  -0.31897  -0.25502
  50        5D 0        0.01264  -0.00970  -0.00334  -0.00679  -0.00031
  51        5D+1        0.01475  -0.00194  -0.01704   0.01623  -0.00534
  52        5D-1       -0.00371  -0.00346  -0.00654   0.00093   0.00144
  53        5D+2        0.00376  -0.00338   0.00058  -0.00668   0.00397
  54        5D-2        0.00401  -0.02237   0.01585   0.01016   0.00906
  55 4   H  1S          0.02994   0.00551   0.08907  -0.00095   0.04298
  56        2S          0.04296   0.00163   0.19538  -0.00760  -0.05396
  57        3S          0.01840   0.02745   0.33842   0.08414   1.55507
  58        4PX         0.00558   0.00448  -0.00182   0.00343  -0.01873
  59        4PY         0.01127  -0.00930  -0.00426  -0.01743  -0.01601
  60        4PZ         0.01603  -0.00368   0.00203  -0.01563   0.01763
  61 5   H  1S          0.07468   0.20293   0.03107   0.03089  -0.03380
  62        2S          0.11852   0.37986   0.06102   0.05431  -0.07362
  63        3S          0.11228   0.44619   0.09828   0.18438  -0.20146
  64        4PX        -0.00106  -0.00437  -0.00267  -0.00146  -0.00057
  65        4PY         0.00257   0.00507   0.00704   0.00709  -0.00431
  66        4PZ         0.00444   0.00265   0.00449  -0.00194  -0.00067
                          16        17        18        19        20
                           V         V         V         V         V
     Eigenvalues --     0.22584   0.25794   0.36671   0.41988   0.45487
   1 1   N  1S         -0.06541   0.02782  -0.00062   0.00886   0.04825
   2        2S         -0.10619   0.04661   0.00121   0.01936   0.09118
   3        2PX        -0.07280   0.03659   0.03742   0.14991  -0.05744
   4        2PY         0.02952  -0.04619  -0.04527   0.04774   0.03090
   5        2PZ        -0.02928   0.00089   0.05213  -0.02399  -0.02387
   6        3S          0.25177  -0.16161  -0.07412  -0.22090  -0.65956
   7        3PX        -0.11899   0.03513   0.09961   0.23635  -0.05115
   8        3PY         0.04524  -0.08541  -0.08359   0.09759   0.10639
   9        3PZ        -0.04014  -0.00499   0.08746  -0.08067  -0.06261
  10        4S          2.57644  -0.85765   0.26377   1.28130  -1.86953
  11        4PX        -0.42412   0.43555   0.04602   5.04878  -1.66842
  12        4PY         0.21343  -0.02645  -0.24746   0.60713  -0.43587
  13        4PZ        -0.17158   0.09778   0.29157   0.26925   0.06920
  14        5D 0        0.03086  -0.01176   0.00735   0.00668   0.00524
  15        5D+1       -0.00889  -0.00087   0.02036  -0.00557  -0.00945
  16        5D-1        0.00125   0.00043  -0.02116   0.00881  -0.00065
  17        5D+2       -0.05294   0.01674  -0.00859  -0.01264  -0.01140
  18        5D-2       -0.01421  -0.00735  -0.01634   0.00551   0.00813
  19 2   N  1S          0.04401  -0.00895   0.01220   0.04557   0.00334
  20        2S          0.07476  -0.01439   0.02151   0.07761   0.01673
  21        2PX         0.14492  -0.04106   0.03020   0.01783   0.06534
  22        2PY        -0.00191  -0.00587   0.00345  -0.00635   0.00582
  23        2PZ         0.01963  -0.00147  -0.00122  -0.00279   0.00970
  24        3S         -0.30177   0.03755  -0.09430  -0.25126  -0.33135
  25        3PX         0.21771  -0.04342   0.05694   0.03437   0.33309
  26        3PY         0.00006  -0.03409  -0.03814  -0.01764   0.07616
  27        3PZ         0.02654   0.00035   0.04148  -0.02115   0.01530
  28        4S         -0.57868   0.01139  -0.12220  -4.90377   2.79881
  29        4PX         0.58200  -0.15861   0.11896   2.70085  -2.12901
  30        4PY        -0.02682   0.08517   0.22794   0.64898  -0.45338
  31        4PZ         0.09143  -0.03644  -0.21362   0.00427  -0.02768
  32        5D 0       -0.00103  -0.00080  -0.00052   0.00235   0.02001
  33        5D+1        0.00376   0.00047  -0.01053   0.00784   0.00817
  34        5D-1        0.00155   0.00056  -0.00482   0.00229   0.00028
  35        5D+2        0.00448  -0.00570  -0.00466  -0.00041  -0.02620
  36        5D-2       -0.00477   0.00678   0.00992  -0.00808  -0.02786
  37 3   N  1S          0.04550  -0.01677   0.02396  -0.01671   0.01061
  38        2S          0.07541  -0.02810   0.04269  -0.02095   0.02403
  39        2PX        -0.20433   0.05337   0.03423  -0.05188  -0.08538
  40        2PY        -0.02767   0.02364   0.07479  -0.03734  -0.04015
  41        2PZ         0.00829   0.01592  -0.09405   0.00322   0.02705
  42        3S         -0.23711   0.10807  -0.17435  -0.15645  -0.20887
  43        3PX        -0.30873   0.05242   0.02090  -0.25294  -0.38822
  44        3PY        -0.01985   0.06915   0.13906  -0.08552  -0.11224
  45        3PZ         0.00720   0.02944  -0.20406  -0.00190   0.07122
  46        4S         -1.21580   0.38240  -0.46979   4.30984  -0.43197
  47        4PX        -1.11676   0.65923   0.61554   2.50900   0.37420
  48        4PY        -0.17557  -0.15952   0.73921  -0.41064   0.24971
  49        4PZ        -0.06349  -0.01724  -0.61593   0.66106  -0.16434
  50        5D 0       -0.00557   0.01556  -0.00103   0.00896   0.01445
  51        5D+1       -0.00662   0.00645  -0.00709  -0.01498  -0.00513
  52        5D-1        0.00273  -0.00203  -0.01372  -0.00599   0.00517
  53        5D+2        0.01582  -0.00236  -0.00897  -0.02638  -0.03153
  54        5D-2        0.01589   0.00118   0.00591   0.00861   0.00100
  55 4   H  1S          0.01508  -0.01018   0.12764  -0.02787  -0.01445
  56        2S          0.16359   0.07050   1.96552  -0.81752  -0.02615
  57        3S         -0.59877  -0.14979  -0.90636   0.35891   0.04583
  58        4PX        -0.02740   0.00102   0.03192  -0.00887   0.03345
  59        4PY         0.02015   0.02541  -0.00522  -0.02952   0.00362
  60        4PZ        -0.01435   0.00954   0.00140   0.02201  -0.00740
  61 5   H  1S         -0.03574  -0.11403   0.01689  -0.00039   0.00668
  62        2S         -0.38224  -1.22503   0.09862   0.10047   0.11586
  63        3S          0.49182   1.68157  -0.00467  -0.00595  -0.14930
  64        4PX        -0.00900   0.00601   0.02400   0.04258   0.03143
  65        4PY        -0.00309   0.00740   0.02845   0.00206   0.00105
  66        4PZ        -0.00369  -0.00048  -0.02577   0.02499  -0.00405
                          21        22        23        24        25
                           V         V         V         V         V
     Eigenvalues --     0.50138   0.52702   0.60387   0.64533   0.67515
   1 1   N  1S         -0.00613  -0.00047  -0.01636   0.03081   0.04017
   2        2S         -0.01170  -0.00069  -0.03197   0.05996   0.07779
   3        2PX        -0.01895   0.00941  -0.03588  -0.01657  -0.10446
   4        2PY        -0.04535  -0.10640  -0.00860  -0.07179   0.05654
   5        2PZ        -0.10678   0.03005   0.02449  -0.00782   0.01859
   6        3S          0.07511   0.00503   0.21316  -0.37940  -0.49197
   7        3PX        -0.02173   0.03084  -0.08787  -0.21250  -0.49404
   8        3PY        -0.17117  -0.44881  -0.03176  -0.25473   0.19911
   9        3PZ        -0.43442   0.13831   0.09942  -0.04256   0.04647
  10        4S         -0.31092  -0.13180  -0.75554   0.76026   0.46341
  11        4PX        -0.31527   0.29336   1.12718  -0.06888   1.45215
  12        4PY         0.18096   0.68062   0.27397   0.37498  -0.44629
  13        4PZ         0.51704  -0.21300  -0.30370   0.14810  -0.15983
  14        5D 0        0.00813   0.00739   0.01141   0.00059  -0.00508
  15        5D+1       -0.00366   0.00167   0.06631   0.01470   0.01847
  16        5D-1       -0.00605   0.00872   0.02179  -0.00575   0.00363
  17        5D+2        0.00055   0.00732  -0.01515   0.00212   0.01310
  18        5D-2       -0.00324  -0.01776   0.00427   0.04396  -0.04881
  19 2   N  1S         -0.00689   0.00278  -0.01551   0.04345   0.04978
  20        2S         -0.01220   0.00520  -0.02951   0.08389   0.09749
  21        2PX         0.01770   0.03102   0.02307  -0.12317  -0.12293
  22        2PY        -0.03782  -0.15179   0.03033   0.09846  -0.11628
  23        2PZ        -0.12616   0.05180   0.13169   0.01793  -0.00315
  24        3S          0.04712  -0.04105   0.17393  -0.60377  -0.75759
  25        3PX         0.06506   0.11238   0.09812  -0.40336  -0.32207
  26        3PY        -0.13761  -0.54041   0.11771   0.34018  -0.39637
  27        3PZ        -0.45629   0.17916   0.45919   0.07224  -0.00915
  28        4S          0.36886  -0.22070  -0.76737   0.51864  -0.08490
  29        4PX        -0.34007  -0.07426   0.03855   0.36481   0.23304
  30        4PY         0.08038   0.62521  -0.17087  -0.69002   0.82372
  31        4PZ         0.49975  -0.18964  -0.61721  -0.17564   0.05176
  32        5D 0       -0.00026  -0.00007  -0.00268   0.00297   0.01195
  33        5D+1        0.03385  -0.01065  -0.02521  -0.00497  -0.00458
  34        5D-1        0.00747  -0.00197  -0.00092  -0.00345   0.00152
  35        5D+2       -0.00451  -0.01359   0.00358  -0.00381  -0.02558
  36        5D-2        0.01191   0.03660  -0.00517  -0.01098   0.00259
  37 3   N  1S         -0.00503   0.00483  -0.01387  -0.00789  -0.01199
  38        2S         -0.00979   0.00962  -0.02472  -0.01573  -0.02198
  39        2PX        -0.01330  -0.00303  -0.05295   0.06144   0.02585
  40        2PY        -0.03125  -0.08554  -0.00460  -0.13178   0.07468
  41        2PZ        -0.12718   0.04011  -0.16468   0.00011  -0.03915
  42        3S          0.06335  -0.07757   0.07519   0.18510   0.15647
  43        3PX        -0.00855   0.00511  -0.11762   0.15882   0.06051
  44        3PY        -0.12673  -0.28501  -0.02957  -0.46729   0.24726
  45        3PZ        -0.43990   0.12486  -0.58100  -0.03902  -0.13587
  46        4S         -0.09712   0.31723   1.34122  -0.88711   0.80610
  47        4PX        -0.15036   0.12812   0.54257  -0.42423  -0.03466
  48        4PY         0.09779   0.16454  -0.35071   0.90676  -0.40944
  49        4PZ         0.45432  -0.00362   1.34443  -0.24203   0.44034
  50        5D 0       -0.01249   0.00046  -0.01658   0.01504  -0.00087
  51        5D+1       -0.02521   0.00940  -0.03646   0.00324  -0.01688
  52        5D-1       -0.00302   0.00447  -0.00006   0.00070  -0.00128
  53        5D+2        0.01103  -0.00156   0.02271  -0.01041  -0.00536
  54        5D-2       -0.00239  -0.01999   0.01117  -0.03604   0.02691
  55 4   H  1S          0.00743  -0.02513   0.00151  -0.00875   0.01507
  56        2S          0.00381  -0.31751  -0.56964   0.35547  -0.12611
  57        3S         -0.16372   0.50472  -0.02702   0.27188  -0.31368
  58        4PX        -0.01934  -0.01310  -0.09965   0.03464  -0.04736
  59        4PY        -0.01315   0.01441  -0.01998   0.07194  -0.02968
  60        4PZ         0.00590  -0.02083   0.02722  -0.03012   0.00711
  61 5   H  1S          0.00207   0.01330  -0.00965   0.00554   0.01948
  62        2S         -0.03331   0.10816  -0.08704  -0.13515   0.03655
  63        3S         -0.04586  -0.33802   0.12853  -0.17214   0.07893
  64        4PX         0.00796   0.02836   0.00112   0.02185  -0.06531
  65        4PY         0.00114  -0.00894  -0.00870  -0.00664   0.00103
  66        4PZ         0.02451   0.00350   0.08272  -0.02011   0.02532
                          26        27        28        29        30
                           V         V         V         V         V
     Eigenvalues --     0.68917   0.74253   0.76994   0.92303   1.02589
   1 1   N  1S         -0.00474  -0.01281  -0.04727   0.00168  -0.00228
   2        2S         -0.00919  -0.02549  -0.09235   0.00417  -0.00728
   3        2PX        -0.02469   0.00604  -0.11638   0.28868  -0.15238
   4        2PY        -0.07981   0.13929  -0.02156   0.02211   0.01656
   5        2PZ         0.16799   0.08880  -0.04012   0.01054  -0.02731
   6        3S          0.05753   0.19302   0.71379  -0.13144   0.10748
   7        3PX        -0.13304   0.00397  -0.48907   0.26290  -0.45921
   8        3PY        -0.27905   0.47907  -0.08012   0.03566   0.07664
   9        3PZ         0.56825   0.29974  -0.14363  -0.02055  -0.10891
  10        4S         -0.52244   0.00298  -1.65414   1.65889   0.55944
  11        4PX         2.00233  -0.77970   2.50917   2.38626  10.52817
  12        4PY         0.99150  -1.64593   0.10758   0.32848   0.76669
  13        4PZ        -1.46434  -0.79078   0.73678   0.17781   0.79532
  14        5D 0        0.00537  -0.01136   0.01127   0.00157  -0.00588
  15        5D+1       -0.01810  -0.00148  -0.00161   0.05501   0.03645
  16        5D-1        0.01886  -0.01761  -0.02486   0.00131   0.04280
  17        5D+2       -0.01424   0.00554  -0.02042   0.02515   0.00968
  18        5D-2       -0.00811   0.01789  -0.01770  -0.09185  -0.05243
  19 2   N  1S          0.00282  -0.01111  -0.00759   0.04123  -0.03485
  20        2S          0.00518  -0.02239  -0.01736   0.07555  -0.07083
  21        2PX        -0.00512   0.03878  -0.01004   0.22760  -0.02082
  22        2PY         0.05126  -0.04595   0.00749   0.06368   0.02015
  23        2PZ        -0.12758  -0.04849   0.00520  -0.00474  -0.01100
  24        3S         -0.05746   0.18934   0.08800  -0.40886   0.58246
  25        3PX         0.02051   0.07550  -0.09422   0.62933   0.23671
  26        3PY         0.18766  -0.19220  -0.00406   0.14476   0.06701
  27        3PZ        -0.45257  -0.17131   0.03842   0.00571  -0.00257
  28        4S         -1.37817   0.54919  -1.33254  -2.34597  -9.25125
  29        4PX         0.44858  -0.35118   0.35880   0.46737   3.23315
  30        4PY        -0.38297   0.73458   0.18612   0.19368   1.06229
  31        4PZ         1.17160   0.51485  -0.29952  -0.10092  -0.22783
  32        5D 0        0.00150  -0.01431  -0.01811  -0.02942   0.02610
  33        5D+1        0.00384   0.00160  -0.00667  -0.02269  -0.03744
  34        5D-1        0.00529  -0.00366  -0.00910  -0.00537  -0.00606
  35        5D+2       -0.00219   0.01087   0.02467   0.03263  -0.07589
  36        5D-2       -0.00149   0.00904   0.02091   0.05778   0.03591
  37 3   N  1S         -0.00665  -0.01553  -0.05667  -0.06357   0.05450
  38        2S         -0.01096  -0.03146  -0.11154  -0.12045   0.10979
  39        2PX        -0.02287  -0.01092  -0.17804   0.19047   0.03219
  40        2PY         0.03391  -0.14450  -0.01104  -0.01080  -0.04092
  41        2PZ        -0.02414  -0.02696   0.06298   0.03849   0.02256
  42        3S         -0.02233   0.30654   0.87341   0.80983  -1.01863
  43        3PX        -0.09035   0.01683  -0.36768   0.50987   0.26154
  44        3PY         0.10266  -0.50062   0.03333   0.02626  -0.18794
  45        3PZ        -0.05995  -0.16488   0.16101   0.04082   0.21042
  46        4S          1.86692  -1.53840   0.46995   0.42169   9.42177
  47        4PX         0.94572  -0.29879   1.90144  -0.14114   3.43941
  48        4PY        -0.69429   1.66328   0.42373  -0.14423  -0.37465
  49        4PZ         0.89718   0.06485  -0.75607   0.03293   0.69534
  50        5D 0       -0.00416   0.00327  -0.04339   0.02921  -0.03911
  51        5D+1       -0.01088   0.01414   0.03973  -0.03423  -0.06451
  52        5D-1        0.00071   0.00146   0.01499   0.01815   0.01810
  53        5D+2       -0.00230   0.02257   0.07661  -0.04084   0.03185
  54        5D-2        0.01853  -0.03486  -0.00340   0.05595   0.09439
  55 4   H  1S          0.03324  -0.02771  -0.00962   0.03703   0.09757
  56        2S         -0.51820   0.53432   0.61325  -0.05285  -0.86473
  57        3S          0.16550   0.35645   0.86079   0.10291  -0.04623
  58        4PX        -0.14863   0.08169   0.01383  -0.05444  -0.31888
  59        4PY        -0.02909   0.11952   0.13125   0.06054  -0.10364
  60        4PZ        -0.00561  -0.02988  -0.16611  -0.08463   0.03542
  61 5   H  1S         -0.00092   0.00486   0.02464   0.03354   0.00102
  62        2S          0.10118  -0.36298   0.15110   0.03939  -0.18485
  63        3S          0.02071   0.03658   0.05473  -0.03184   0.11789
  64        4PX         0.01800  -0.01919  -0.01057  -0.11169   0.19280
  65        4PY         0.00841  -0.02267   0.13661   0.04892  -0.07370
  66        4PZ         0.06514  -0.02829  -0.03469   0.02596   0.09777
                          31        32        33        34        35
                           V         V         V         V         V
     Eigenvalues --     1.11668   1.22089   1.35103   1.38578   1.45620
   1 1   N  1S          0.07941  -0.01124  -0.00648  -0.00357   0.00066
   2        2S          0.15271  -0.02186  -0.01351  -0.00782   0.00087
   3        2PX        -0.11348  -0.00367  -0.05881  -0.03373   0.03638
   4        2PY        -0.04955   0.00460  -0.03002  -0.01531   0.00577
   5        2PZ         0.00656  -0.00004  -0.00708   0.00666   0.00291
   6        3S         -1.33806   0.21531   0.08384   0.05658   0.02370
   7        3PX        -0.00327  -0.02522  -0.21575  -0.17290   0.16054
   8        3PY        -0.04092  -0.01302  -0.06326  -0.05293   0.01035
   9        3PZ         0.00199  -0.02768  -0.01470   0.01801  -0.05985
  10        4S          7.25201  -1.35339   0.58774   0.23927  -1.30190
  11        4PX         1.46280   0.87602   3.18633   4.22114  -3.18149
  12        4PY         0.60118   0.15075   0.50153   0.72785  -0.38878
  13        4PZ        -0.08099   0.25859   0.21544   0.02676   0.14838
  14        5D 0       -0.10947   0.13700   0.00519   0.01009   0.02383
  15        5D+1        0.02713   0.04756   0.00761  -0.00379   0.40899
  16        5D-1       -0.00720   0.01531  -0.05815   0.07839   0.07379
  17        5D+2        0.21137   0.00496   0.01068  -0.00575  -0.07291
  18        5D-2        0.04940   0.02566   0.00632   0.01781   0.15733
  19 2   N  1S         -0.07405   0.00731  -0.01100  -0.00560   0.00593
  20        2S         -0.14174   0.01352  -0.02306  -0.01261   0.01313
  21        2PX        -0.13653   0.01481  -0.00059   0.01927  -0.01336
  22        2PY        -0.02705  -0.00370   0.01134   0.00690  -0.03990
  23        2PZ        -0.00179  -0.01567  -0.00592  -0.00180  -0.06734
  24        3S          1.19404  -0.12558   0.20825   0.13143  -0.14806
  25        3PX         0.04804  -0.00407   0.04664   0.10595  -0.09169
  26        3PY         0.01483  -0.00949   0.02938   0.02793  -0.07483
  27        3PZ        -0.00149  -0.02172  -0.00520  -0.00528  -0.11292
  28        4S         -5.44790  -0.03269  -3.03183  -3.68247   3.20850
  29        4PX         2.55597  -0.07887   1.14117   1.32882  -1.19083
  30        4PY         0.40711  -0.01038   0.21220   0.25396  -0.29226
  31        4PZ         0.04245  -0.07939  -0.03763   0.02527  -0.07385
  32        5D 0        0.08976   0.01504   0.00992   0.00867  -0.00449
  33        5D+1       -0.00452  -0.03964  -0.01277  -0.00784  -0.26017
  34        5D-1       -0.00155  -0.00869  -0.02386   0.02626  -0.05654
  35        5D+2       -0.13589   0.03259  -0.01558  -0.00702   0.07127
  36        5D-2       -0.05894   0.00036   0.00200  -0.01118  -0.11812
  37 3   N  1S         -0.02272   0.01625   0.00261   0.00467  -0.00455
  38        2S         -0.04408   0.03347   0.00353   0.01094  -0.01034
  39        2PX         0.00728  -0.01284  -0.04597  -0.00865   0.00116
  40        2PY        -0.00059   0.00499  -0.00234   0.00036   0.02590
  41        2PZ         0.01022  -0.00876   0.00494  -0.03362   0.08250
  42        3S          0.49969  -0.34424  -0.02667  -0.19451   0.13291
  43        3PX        -0.09345   0.04054  -0.06719   0.02077  -0.13426
  44        3PY         0.02680  -0.06599  -0.04100   0.03515   0.09587
  45        3PZ        -0.06130   0.03650   0.07740  -0.04755   0.09842
  46        4S         -2.06355   1.75946   2.18564   3.58038  -2.24962
  47        4PX        -0.94753   0.62726   1.03746   1.45461  -0.33269
  48        4PY         0.00162  -0.28550  -0.03634  -0.56563   0.03295
  49        4PZ        -0.16454  -0.10141  -0.01322   0.63548  -0.37935
  50        5D 0        0.04464   0.24178   0.02453  -0.01866  -0.14267
  51        5D+1       -0.02832  -0.09208  -0.00712  -0.01457  -0.36265
  52        5D-1        0.00439  -0.01385  -0.09818   0.04148   0.05674
  53        5D+2       -0.01022   0.16697  -0.01894  -0.02608  -0.01094
  54        5D-2        0.03894  -0.00387  -0.03076  -0.06425  -0.12761
  55 4   H  1S         -0.01386   0.03385   0.11495  -0.02972   0.08796
  56        2S          0.35476  -0.29902  -0.14810  -0.45304   0.13984
  57        3S         -0.03991   0.01051   0.11927   0.03091   0.05722
  58        4PX        -0.07472  -0.10606   0.30588   0.02459  -0.33102
  59        4PY         0.14359   0.51834  -0.16830  -0.02454   0.14149
  60        4PZ        -0.07337   0.59293   0.12435   0.13221  -0.18295
  61 5   H  1S          0.02987   0.06670  -0.00373  -0.01383  -0.03239
  62        2S          0.13519   0.04712  -0.02767   0.00878   0.07860
  63        3S         -0.13359  -0.09367   0.05622   0.09916   0.07019
  64        4PX        -0.16123  -0.19146  -0.63032  -0.26000   0.01297
  65        4PY         0.14071   0.21720  -0.53447  -0.18922  -0.33079
  66        4PZ        -0.00898   0.08092   0.34704  -0.91569  -0.00226
                          36        37        38        39        40
                           V         V         V         V         V
     Eigenvalues --     1.49438   1.64501   1.65672   1.70277   1.80557
   1 1   N  1S         -0.00965  -0.00142  -0.00067   0.00036  -0.00320
   2        2S         -0.01943  -0.00219  -0.00149  -0.00030  -0.00562
   3        2PX         0.02085  -0.04061  -0.00078   0.05948  -0.01571
   4        2PY        -0.00959  -0.02764  -0.01374   0.01958   0.02839
   5        2PZ        -0.00957   0.03108  -0.01190  -0.01216  -0.02168
   6        3S          0.28274   0.01741   0.01197   0.05056   0.07783
   7        3PX         0.21328  -0.02605  -0.03532   0.02161  -0.04555
   8        3PY         0.07351  -0.04048  -0.02857   0.01323   0.02196
   9        3PZ        -0.01144   0.04702  -0.01803  -0.01442  -0.00026
  10        4S         -3.67006   0.21342   0.17560  -1.06157  -0.23720
  11        4PX        -4.20441   0.49117   1.06375   1.56370   2.06999
  12        4PY        -0.93556   0.30149   0.13449  -0.09540  -0.07101
  13        4PZ        -0.05069  -0.26364   0.06914   0.40980  -0.14714
  14        5D 0       -0.01711  -0.02869  -0.61217  -0.02694   0.09896
  15        5D+1       -0.03857   0.21230   0.03944  -0.23383   0.19440
  16        5D-1        0.03520  -0.59171   0.06966  -0.38461  -0.00042
  17        5D+2       -0.03630  -0.05466  -0.37361  -0.05025  -0.02214
  18        5D-2       -0.34578  -0.11080  -0.00260   0.26091   0.12894
  19 2   N  1S          0.00998  -0.00374  -0.00034   0.00690   0.00154
  20        2S          0.02029  -0.00874  -0.00105   0.01451   0.00212
  21        2PX        -0.05389  -0.00825   0.01382   0.03039   0.02454
  22        2PY         0.04689   0.01579  -0.01725  -0.03621  -0.00455
  23        2PZ         0.01031  -0.01869  -0.00787   0.05327  -0.03995
  24        3S         -0.26846   0.06953   0.02049  -0.11540  -0.00805
  25        3PX        -0.25718  -0.03847   0.04112   0.09751   0.04946
  26        3PY         0.04284   0.01911  -0.02717  -0.04906  -0.01744
  27        3PZ         0.01378  -0.03027  -0.01249   0.08488  -0.05839
  28        4S          5.19365  -0.53970  -0.95277  -0.76552  -1.51331
  29        4PX        -2.01344   0.23634   0.34096   0.16789   0.49431
  30        4PY        -0.37951  -0.03410   0.09866   0.18725   0.25220
  31        4PZ        -0.03041   0.10878  -0.00985  -0.17468   0.12074
  32        5D 0       -0.05523  -0.03448  -0.46128  -0.01294   0.12291
  33        5D+1        0.02242   0.03080  -0.04885   0.29466  -0.18774
  34        5D-1        0.02191  -0.43108   0.02979  -0.28564  -0.12901
  35        5D+2       -0.07830  -0.06245  -0.20970   0.09150   0.07039
  36        5D-2        0.19888   0.04257  -0.19590  -0.17124   0.02403
  37 3   N  1S          0.03040   0.02085   0.00261  -0.00660   0.02151
  38        2S          0.06163   0.04379   0.00554  -0.01039   0.04582
  39        2PX        -0.03131  -0.00210   0.00288   0.03597  -0.01876
  40        2PY        -0.06235   0.01667  -0.00110  -0.01109  -0.04279
  41        2PZ        -0.00683  -0.01935  -0.00104   0.01725   0.06916
  42        3S         -0.53549  -0.33819  -0.07904  -0.05207  -0.50684
  43        3PX        -0.10097   0.10714   0.04754   0.03359   0.14493
  44        3PY        -0.15957   0.14438  -0.05445  -0.04052  -0.16675
  45        3PZ        -0.03659  -0.14120   0.01064   0.06993   0.00123
  46        4S         -1.22643   0.71999   0.92720   1.65823   2.40626
  47        4PX        -0.14675  -0.19855   0.23174   1.28134   0.45690
  48        4PY         0.54867  -0.44098   0.00436   0.15068   0.58873
  49        4PZ        -0.02658   0.45667   0.02879  -0.14697   0.43431
  50        5D 0        0.00071  -0.05734  -0.08919   0.02791  -0.08547
  51        5D+1       -0.01899  -0.11284   0.04823   0.10995   0.02229
  52        5D-1        0.08836  -0.17544   0.00408   0.10370   0.08797
  53        5D+2        0.01626   0.00595  -0.06554   0.00590   0.00855
  54        5D-2        0.32401   0.12894  -0.02240  -0.14117  -0.17210
  55 4   H  1S          0.08415   0.17999  -0.03181  -0.33703  -0.41876
  56        2S         -0.13126  -0.70059  -0.03828   0.66688   0.36267
  57        3S          0.10331   0.12753  -0.00019  -0.20464  -0.16543
  58        4PX        -0.39080   0.35330   0.01666  -0.59555   0.13608
  59        4PY         0.07291   0.17113   0.07158   0.05453  -0.34308
  60        4PZ        -0.31022  -0.10254   0.17143  -0.08223  -0.11297
  61 5   H  1S          0.00776   0.01268  -0.02516  -0.02276  -0.47102
  62        2S         -0.04063  -0.01527   0.03828   0.02993   0.38252
  63        3S         -0.12932  -0.01520  -0.09528   0.07109  -0.44836
  64        4PX        -0.47452   0.10270  -0.09695  -0.16657  -0.40631
  65        4PY         0.10486   0.09691   0.14978  -0.15405   0.65831
  66        4PZ        -0.03852  -0.14240   0.04324   0.02331   0.07608
                          41        42        43        44        45
                           V         V         V         V         V
     Eigenvalues --     1.84933   2.07643   2.10317   2.17458   2.24165
   1 1   N  1S         -0.00992  -0.00060   0.00371  -0.00179   0.00660
   2        2S         -0.02071  -0.00193   0.00863  -0.00302   0.01887
   3        2PX        -0.00963   0.00075   0.00112   0.01678   0.02628
   4        2PY        -0.03391  -0.04436   0.01455  -0.06762   0.15064
   5        2PZ         0.03392  -0.02400  -0.00113  -0.11560  -0.05736
   6        3S          0.22065   0.01083  -0.04667   0.07544  -0.16451
   7        3PX        -0.09333  -0.01247   0.03835  -0.00487   0.04310
   8        3PY        -0.02372  -0.01492  -0.01718  -0.01736   0.00622
   9        3PZ         0.01956  -0.02004   0.01890  -0.01452   0.00502
  10        4S         -0.90902   0.07819  -0.05912  -0.54517  -0.45135
  11        4PX         2.80336  -0.42625   0.85935   1.15655   1.31323
  12        4PY         0.03448  -0.07507   0.20307  -0.34074   0.51662
  13        4PZ         0.14169  -0.02366   0.09975  -0.35964   0.03772
  14        5D 0        0.04302  -0.41357  -0.12213   0.03918  -0.15436
  15        5D+1       -0.15537   0.00444   0.06518   0.05094  -0.09259
  16        5D-1        0.05789   0.12247  -0.52645   0.02711   0.21661
  17        5D+2       -0.10460  -0.24241  -0.09096  -0.05916   0.11546
  18        5D-2        0.28006  -0.08186  -0.02911   0.10543   0.09165
  19 2   N  1S          0.00072  -0.00159   0.00089   0.00033   0.00862
  20        2S          0.00077  -0.00331   0.00139  -0.00002   0.02147
  21        2PX         0.03018  -0.00597   0.01159   0.01429  -0.00053
  22        2PY        -0.04750  -0.00763   0.01564  -0.01417   0.02059
  23        2PZ         0.03046  -0.00255  -0.00306  -0.02884  -0.00044
  24        3S         -0.00335   0.02348  -0.00668  -0.00310  -0.18460
  25        3PX         0.05903  -0.02544   0.02146   0.01013   0.17641
  26        3PY        -0.07132  -0.01606   0.01184  -0.03868   0.06167
  27        3PZ         0.04267  -0.00757   0.00515  -0.03904   0.00105
  28        4S         -1.87631   0.31068  -0.68841  -0.64468  -0.83183
  29        4PX         0.58711  -0.10479   0.25202   0.15886   0.22448
  30        4PY         0.35229   0.00556   0.00051   0.28438  -0.18222
  31        4PZ        -0.07994   0.01589  -0.01767   0.24326   0.02892
  32        5D 0        0.09190   0.65784   0.17338  -0.00427  -0.02660
  33        5D+1        0.12740  -0.03067  -0.13392  -0.43334  -0.10099
  34        5D-1        0.27004  -0.20451   0.71528  -0.10524  -0.21091
  35        5D+2        0.15415   0.38864   0.07093   0.14141  -0.04538
  36        5D-2       -0.24933   0.03846   0.10143  -0.30645   0.49296
  37 3   N  1S          0.03109  -0.00657   0.00642   0.01202   0.02375
  38        2S          0.06220  -0.01575   0.02007   0.02968   0.05585
  39        2PX         0.07507  -0.00292  -0.01808  -0.01161   0.02593
  40        2PY         0.09690  -0.01577  -0.05262   0.02686   0.05970
  41        2PZ        -0.08075  -0.03088   0.05999   0.02069  -0.01668
  42        3S         -0.54172   0.15240  -0.24300  -0.33474  -0.52933
  43        3PX         0.26741  -0.05151   0.11855   0.16254   0.03970
  44        3PY         0.07582  -0.08118   0.17716   0.06357   0.21414
  45        3PZ        -0.12834   0.05639  -0.13000  -0.15095  -0.18475
[...]
 IR Inten    --    13.9034                14.5915               170.6984
  Atom  AN      X      Y      Z        X      Y      Z        X      Y      Z
     1   7     0.03  -0.23   0.38    -0.06   0.32   0.22     0.05  -0.05   0.07
     2   7    -0.03   0.12  -0.21     0.03  -0.16  -0.12     0.05   0.01  -0.01
     3   7     0.06   0.07  -0.17    -0.00  -0.10  -0.06    -0.16   0.06  -0.08
     4   1    -0.54   0.32  -0.34     0.06  -0.52  -0.47     0.86  -0.33   0.31
     5   1    -0.31   0.15   0.28     0.45  -0.30  -0.06    -0.00   0.05  -0.02
                     7                      8                      9
                     A                      A                      A
 Frequencies --  1296.5023              2291.3191              3517.8842
 Red. masses --     3.3920                12.2374                 1.0761
 Frc consts  --     3.3593                37.8540                 7.8463
 IR Inten    --     1.1931               427.6986                58.7575
  Atom  AN      X      Y      Z        X      Y      Z        X      Y      Z
     1   7     0.10   0.03  -0.02     0.73   0.13   0.00    -0.00   0.00  -0.00
     2   7     0.27   0.03   0.01    -0.53  -0.11  -0.00    -0.00  -0.00  -0.00
     3   7    -0.30  -0.07   0.02    -0.17  -0.02   0.00     0.04   0.05  -0.04
     4   1    -0.87   0.09  -0.19    -0.36   0.03  -0.08    -0.46  -0.65   0.60
     5   1    -0.06   0.12   0.03     0.01  -0.02  -0.01     0.00  -0.00  -0.00

 -------------------
 - Thermochemistry -
 -------------------
 Temperature   298.150 Kelvin.  Pressure   1.00000 Atm.
 Atom     1 has atomic number  7 and mass  14.00307
 Atom     2 has atomic number  7 and mass  14.00307
 Atom     3 has atomic number  7 and mass  14.00307
 Atom     4 has atomic number  1 and mass   1.00783
 Atom     5 has atomic number  1 and mass   1.00783
 Molecular mass:    44.02487 amu.
 Principal axes and moments of inertia in atomic units:
                           1         2         3
     Eigenvalues --    13.27435 162.94567 172.82138
           X            0.99881  -0.04196  -0.02491
           Y            0.04151   0.99897  -0.01827
           Z            0.02565   0.01721   0.99952
 This molecule is an asymmetric top.
 Rotational symmetry number  1.
 Rotational temperatures (Kelvin)      6.52490     0.53155     0.50118
 Rotational constants (GHZ):         135.95700    11.07572    10.44281
    1 imaginary frequencies ignored.
 Zero-point vibrational energy      59663.8 (Joules/Mol)
                                   14.25998 (Kcal/Mol)
 Warning -- explicit consideration of   3 degrees of freedom as
           vibrations may cause significant error
 Vibrational temperatures:    254.22   479.89   809.07   905.99  1679.11
          (Kelvin)           1865.38  3296.69  5061.44
 
 Zero-point correction=                           0.022725 (Hartree/Particle)
 Thermal correction to Energy=                    0.026892
 Thermal correction to Enthalpy=                  0.027836
 Thermal correction to Gibbs Free Energy=        -0.002479
 Sum of electronic and zero-point Energies=           -165.201068
 Sum of electronic and thermal Energies=              -165.196900
 Sum of electronic and thermal Enthalpies=            -165.195956
 Sum of electronic and thermal Free Energies=         -165.226272
 
                     E (Thermal)             CV                S
                      KCal/Mol        Cal/Mol-Kelvin    Cal/Mol-Kelvin
 Total                   16.875             11.905             63.804
 Electronic               0.000              0.000              1.377
 Translational            0.889              2.981             37.273
 Rotational               0.889              2.981             20.552
 Vibrational             15.098              5.943              4.602
 Vibration     1          0.628              1.871              2.363
 Vibration     2          0.715              1.609              1.243
 Vibration     3          0.918              1.113              0.519
                       Q            Log10(Q)             Ln(Q)
 Total Bot       0.138128D+02          1.140281          2.625595
 Total V=0       0.391661D+12         11.592910         26.693662
 Vib (Bot)       0.869112D-10        -10.060924        -23.166134
 Vib (Bot)    1  0.113802D+01          0.056151          0.129293
 Vib (Bot)    2  0.558967D+00         -0.252614         -0.581666
 Vib (Bot)    3  0.275759D+00         -0.559471         -1.288230
 Vib (V=0)       0.246436D+01          0.391705          0.901933
 Vib (V=0)    1  0.174302D+01          0.241302          0.555619
 Vib (V=0)    2  0.124996D+01          0.096897          0.223113
 Vib (V=0)    3  0.107100D+01          0.029790          0.068594
 Electronic      0.200000D+01          0.301030          0.693147
 Translational   0.114816D+08          7.060002         16.256256
 Rotational      0.692107D+04          3.840173          8.842326
 
                                                        RC, from TS reverse 6
                                                             IR Spectrum
 
     3                                            2                                   1   1                                          
     5                                            2                                   2   1                   6 5       3     1      
     1                                            9                                   9   6                   3 6       3     7      
     8                                            1                                   7   7                   0 2       4     7      
 
     X                                            X                                   X   X                   X X       X     X      
     X                                            X                                       X                             X            
     X                                            X                                       X                             X            
                                                  X                                       X                                          
                                                  X                                       X                                          
                                                  X                                       X                                          
                                                  X                                       X                                          
                                                  X                                       X                                          
                                                  X                                                                                  
                                                  X                                                                                  
                                                  X                                                                                  
                                                  X                                                                                  
                                                  X                                                                                  
                                                  X                                                                                  
                                                  X                                                                                  
                                                  X                                                                                  
                                                  X                                                                                  
                                                  X                                                                                  
                                                  X                                                                                  
                                                  X                                                                                  
 
 ***** Axes restored to original set *****
 -------------------------------------------------------------------
 Center     Atomic                   Forces (Hartrees/Bohr)
 Number     Number              X              Y              Z
 -------------------------------------------------------------------
      1        7           0.002442572    0.002818694    0.000692017
      2        7          -0.001531299   -0.001542360   -0.000547200
      3        7          -0.002909982   -0.004733266    0.000857199
      4        1          -0.000441940   -0.000110207    0.000300688
      5        1           0.002440649    0.003567139   -0.001302703
 -------------------------------------------------------------------
 Cartesian Forces:  Max     0.004733266 RMS     0.002186260
 Z-matrix is all fixed cartesians, so copy forces.
 Force constants in Cartesian coordinates: 
                1             2             3             4             5 
      1  0.176290D+00
      2 -0.739824D-02  0.124945D+00
      3 -0.221109D+00  0.171579D-01  0.174006D+01
      4 -0.713333D-01  0.673543D-02  0.110001D+00  0.512374D-01
      5  0.946398D-02 -0.653002D-01 -0.355751D-01 -0.520060D-02  0.356944D-01
      6  0.134322D+00 -0.201443D-01 -0.114086D+01 -0.152420D+00  0.271365D-01
      7 -0.104101D+00  0.957327D-02  0.766396D-01  0.202733D-01 -0.892659D-02
      8  0.428152D-02 -0.373683D-01  0.212802D-01 -0.450319D-02  0.174233D-01
      9  0.109599D+00 -0.449560D-02 -0.537947D+00  0.418327D-01  0.103814D-01
     10  0.468941D-02  0.198606D-03  0.344880D-01 -0.170997D-02  0.716730D-05
     11  0.267965D-02 -0.126708D-01  0.387689D-03 -0.482709D-03  0.663276D-02
     12 -0.280277D-01  0.179971D-03 -0.621868D-01  0.200573D-02  0.474326D-03
     13 -0.554517D-02 -0.910907D-02 -0.196073D-04  0.153255D-02  0.465604D-02
     14 -0.902691D-02 -0.960561D-02 -0.325065D-02  0.345107D-02  0.554972D-02
     15  0.521558D-02  0.730201D-02  0.940372D-03 -0.141928D-02 -0.241712D-02
                6             7             8             9            10 
      6  0.120800D+01
      7  0.502409D-02  0.345812D+00
      8 -0.187619D-01 -0.973027D-03  0.131691D-01
      9 -0.751808D-01  0.927489D-01 -0.119219D-02  0.788187D+00
     10  0.512947D-02 -0.267097D+00 -0.618944D-02 -0.234674D+00  0.263330D+00
     11 -0.789524D-03 -0.468151D-02 -0.560258D-04  0.530464D-02  0.316757D-02
     12  0.109785D-01 -0.170322D+00  0.277537D-02 -0.174718D+00  0.195976D+00
     13  0.794483D-02  0.511322D-02  0.738414D-02 -0.950703D-02  0.787836D-03
     14  0.125592D-01  0.500785D-02  0.683197D-02 -0.999822D-02  0.281610D-02
     15 -0.293882D-02 -0.409052D-02 -0.410147D-02 -0.342047D-03 -0.919176D-03
               11            12            13            14            15 
     11  0.486094D-02
     12 -0.273997D-02  0.224801D+00
     13 -0.683000D-03  0.368408D-03 -0.188843D-02
     14  0.123310D-02 -0.689702D-03 -0.224811D-02 -0.400919D-02
     15 -0.216283D-02  0.112468D-02  0.121340D-02  0.137942D-02  0.121581D-02
 Leave Link  716 at Tue Apr 29 14:52:27 2014, MaxMem=   65536000 cpu:       0.2
 (Enter /apps/gaussian/g09/l103.exe)

 GradGradGradGradGradGradGradGradGradGradGradGradGradGradGradGradGradGrad
 Berny optimization.
 Search for a local minimum.
 Step number   1 out of a maximum of    2
 All quantities printed in internal units (Hartrees-Bohrs-Radians)
 Second derivative matrix not updated -- analytic derivatives used.
 The second derivative matrix:
                          X1        Y1        Z1        X2        Y2
           X1           0.17629
           Y1          -0.00740   0.12494
           Z1          -0.22111   0.01716   1.74006
           X2          -0.07133   0.00674   0.11000   0.05124
           Y2           0.00946  -0.06530  -0.03558  -0.00520   0.03569
           Z2           0.13432  -0.02014  -1.14086  -0.15242   0.02714
           X3          -0.10410   0.00957   0.07664   0.02027  -0.00893
           Y3           0.00428  -0.03737   0.02128  -0.00450   0.01742
           Z3           0.10960  -0.00450  -0.53795   0.04183   0.01038
           X4           0.00469   0.00020   0.03449  -0.00171   0.00001
           Y4           0.00268  -0.01267   0.00039  -0.00048   0.00663
           Z4          -0.02803   0.00018  -0.06219   0.00201   0.00047
           X5          -0.00555  -0.00911  -0.00002   0.00153   0.00466
           Y5          -0.00903  -0.00961  -0.00325   0.00345   0.00555
           Z5           0.00522   0.00730   0.00094  -0.00142  -0.00242
                          Z2        X3        Y3        Z3        X4
           Z2           1.20800
           X3           0.00502   0.34581
           Y3          -0.01876  -0.00097   0.01317
           Z3          -0.07518   0.09275  -0.00119   0.78819
           X4           0.00513  -0.26710  -0.00619  -0.23467   0.26333
           Y4          -0.00079  -0.00468  -0.00006   0.00530   0.00317
           Z4           0.01098  -0.17032   0.00278  -0.17472   0.19598
           X5           0.00794   0.00511   0.00738  -0.00951   0.00079
           Y5           0.01256   0.00501   0.00683  -0.01000   0.00282
           Z5          -0.00294  -0.00409  -0.00410  -0.00034  -0.00092
                          Y4        Z4        X5        Y5        Z5
           Y4           0.00486
           Z4          -0.00274   0.22480
           X5          -0.00068   0.00037  -0.00189
           Y5           0.00123  -0.00069  -0.00225  -0.00401
           Z5          -0.00216   0.00112   0.00121   0.00138   0.00122
     Eigenvalues ---   -0.01351   0.00371   0.00717   0.05645   0.16843
     Eigenvalues ---    0.22188   0.59093   1.05975   2.76438
 Eigenvalue     1 is  -1.35D-02 should be greater than     0.000000 Eigenvector:
                          Y5        X5        Y3        Z5        X4
   1                   -0.73617  -0.48932   0.31021   0.24862   0.17630
                          Z4        X3        X2        X1        Y4
   1                   -0.10759   0.09651   0.06008  -0.03828  -0.03493
 Quadratic step=4.926D-01 exceeds max=3.000D-01 adjusted using Lamda=-8.044D-03.
 Angle between NR and scaled steps=   7.48 degrees.
 Angle between quadratic step and forces=  36.90 degrees.
 Linear search not attempted -- first point.
 TrRot= -0.012048 -0.023186  0.006146 -1.321218 -0.008268  1.318538
 Variable       Old X    -DE/DX   Delta X   Delta X   Delta X     New X
                                 (Linear)    (Quad)   (Total)
    X1       -0.19734   0.00244   0.00000   0.02597   0.01330  -0.18404
    Y1       -0.11214   0.00282   0.00000   0.02549   0.00428  -0.10785
    Z1        0.18151   0.00069   0.00000   0.00851   0.01499   0.19649
    X2       -0.44845  -0.00153   0.00000  -0.02205  -0.03892  -0.48738
    Y2       -0.04751  -0.00154   0.00000  -0.00183  -0.00534  -0.05285
    Z2        2.30250  -0.00055   0.00000  -0.00282   0.00268   2.30517
    X3        0.53567  -0.00291   0.00000  -0.02897  -0.03730   0.49838
    Y3       -0.03364  -0.00473   0.00000  -0.12484  -0.16565  -0.19929
    Z3       -2.03386   0.00086   0.00000   0.00200   0.01053  -2.02334
    X4       -0.94271  -0.00044   0.00000  -0.05181  -0.05723  -0.99994
    Y4       -0.03920  -0.00011   0.00000   0.04466  -0.00181  -0.04101
    Z4       -3.26726   0.00030   0.00000   0.02952   0.03368  -3.23357
    X5        2.47286   0.00244   0.00000   0.11809   0.12015   2.59301
    Y5        2.72474   0.00357   0.00000   0.22306   0.16852   2.89325
    Z5       -2.98716  -0.00130   0.00000  -0.04987  -0.06187  -3.04903
         Item               Value     Threshold  Converged?
 Maximum Force            0.004733     0.000450     NO 
 RMS     Force            0.002186     0.000300     NO 
 Maximum Displacement     0.168515     0.001800     NO 
 RMS     Displacement     0.073931     0.001200     NO 
 Predicted change in Energy=-2.538139D-03
 GradGradGradGradGradGradGradGradGradGradGradGradGradGradGradGradGradGrad

 Leave Link  103 at Tue Apr 29 14:52:28 2014, MaxMem=   65536000 cpu:       1.8
 (Enter /apps/gaussian/g09/l9999.exe)

 Test job not archived.
 1\1\GINC-ROMEO158\Freq\UM06\6-311G(d,p)\H2N3(2)\ROOT\29-Apr-2014\0\\#P
  M06 6-311G** FREQ # GFINPUT IOP(6/7=3) POP=FULL\\RC, from TS reverse 
 6\\0,2\N,-0.104429,-0.05934,0.09605\N,-0.237312,-0.02514,1.218429\N,0.
 283465,-0.0178,-1.076275\H,-0.498863,-0.020745,-1.728957\H,1.30858,1.4
 4187,-1.580736\\Version=AM64L-G09RevA.02\State=2-A\HF=-165.2237926\S2=
 0.757018\S2-1=0.\S2A=0.750005\RMSD=3.521e-09\RMSF=2.186e-03\ZeroPoint=
 0.0227247\Thermal=0.0268922\Dipole=-0.6733438,-0.1828915,-0.4454225\Di
 poleDeriv=0.0591941,-0.1260757,-0.3159849,-0.1646769,0.057549,0.127789
 4,-0.6302998,-0.2562425,2.0133134,-0.1232036,0.0192474,0.0517351,0.072
 7107,-0.0666929,-0.0783556,0.4600422,0.2879541,-1.0507027,-0.0774815,0
 .0378448,0.3687271,0.0700743,-0.3420135,-0.0766468,0.1635175,-0.005866
 2,-1.251702,0.1552852,-0.0109876,-0.0771944,-0.0145556,0.3355665,0.025
 6564,0.0463597,0.0329955,0.3352775,-0.0137942,0.0799712,-0.0272829,0.0
 364475,0.015591,0.0015566,-0.0396197,-0.0588409,-0.0461862\Polar=18.80
 11644,6.8144336,17.8468006,-9.31137,-6.7248056,43.3797619\PG=C01 [X(H2
 N3)]\NImag=1\\0.17629022,-0.00739824,0.12494486,-0.22110929,0.01715791
 ,1.74005545,-0.07133327,0.00673543,0.11000126,0.05123740,0.00946398,-0
 .06530017,-0.03557513,-0.00520060,0.03569444,0.13432201,-0.02014430,-1
 .14086246,-0.15242040,0.02713655,1.20800361,-0.10410119,0.00957327,0.0
 7663962,0.02027330,-0.00892659,0.00502409,0.34581212,0.00428152,-0.037
 36831,0.02128018,-0.00450319,0.01742325,-0.01876188,-0.00097303,0.0131
 6911,0.10959939,-0.00449560,-0.53794654,0.04183268,0.01038137,-0.07518
 080,0.09274889,-0.00119219,0.78818689,0.00468941,0.00019861,0.03448802
 ,-0.00170997,0.00000717,0.00512947,-0.26709744,-0.00618944,-0.23467393
 ,0.26333017,0.00267965,-0.01267077,0.00038769,-0.00048271,0.00663276,-
 0.00078952,-0.00468151,-0.00005603,0.00530464,0.00316757,0.00486094,-0
 .02802769,0.00017997,-0.06218682,0.00200573,0.00047433,0.01097847,-0.1
 7032207,0.00277537,-0.17471751,0.19597563,-0.00273997,0.22480118,-0.00
 554517,-0.00910907,-0.00001961,0.00153255,0.00465604,0.00794483,0.0051
 1322,0.00738414,-0.00950703,0.00078784,-0.00068300,0.00036841,-0.00188
 843,-0.00902691,-0.00960561,-0.00325065,0.00345107,0.00554972,0.012559
 15,0.00500785,0.00683197,-0.00999822,0.00281610,0.00123310,-0.00068970
 ,-0.00224811,-0.00400919,0.00521558,0.00730201,0.00094037,-0.00141928,
 -0.00241712,-0.00293882,-0.00409052,-0.00410147,-0.00034205,-0.0009191
 8,-0.00216283,0.00112468,0.00121340,0.00137942,0.00121581\\-0.00244257
 ,-0.00281869,-0.00069202,0.00153130,0.00154236,0.00054720,0.00290998,0
 .00473327,-0.00085720,0.00044194,0.00011021,-0.00030069,-0.00244065,-0
 .00356714,0.00130270\\\@


 We make a living by what we get,
 we make a life by what we give.
                   -- Sir Winston Churchill
 There are more things in heaven and earth, Horatio,
 than are dreamt of in your philosophy.
                   -- Hamlet, Act I, Scene 5
 The chemist is a guest at the physicist's table and
 frequently dines well.
                   -- Richard Bersohn
 Job cpu time:  0 days  0 hours  1 minutes 52.3 seconds.
 File lengths (MBytes):  RWF=      9 Int=      0 D2E=      0 Chk=      1 Scr=      1
 Normal termination of Gaussian 09 at Tue Apr 29 14:52:28 2014.
************
total 320
drwxrwxr-x 2 henon henon   4096 29 avril 14:52 .
drwxrwxr-x 3 henon henon   4096 29 avril 14:52 ..
-rw-r--r-- 1 henon henon    376 29 avril 14:52 6Rfreq.inp
-rw-rw-r-- 1 henon henon 312257 29 avril 14:52 6Rfreq.out
Run on 12 cores
romeo158
************
