 Entering Gaussian System, Link 0=g03
 Initial command:
 /soft/g03/g03/l1.exe /local/run/antares-adm.114830.0/Gau-8654.inp -scrdir=/local/run/antares-adm.114830.0/
 Entering Link 1 = /soft/g03/g03/l1.exe PID=      8655.
  
 Copyright (c) 1988,1990,1992,1993,1995,1998,2003,2004, Gaussian, Inc.
                  All Rights Reserved.
  
 This is the Gaussian(R) 03 program.  It is based on the
 the Gaussian(R) 98 system (copyright 1998, Gaussian, Inc.),
 the Gaussian(R) 94 system (copyright 1995, Gaussian, Inc.),
 the Gaussian 92(TM) system (copyright 1992, Gaussian, Inc.),
 the Gaussian 90(TM) system (copyright 1990, Gaussian, Inc.),
 the Gaussian 88(TM) system (copyright 1988, Gaussian, Inc.),
 the Gaussian 86(TM) system (copyright 1986, Carnegie Mellon
 University), and the Gaussian 82(TM) system (copyright 1983,
 Carnegie Mellon University). Gaussian is a federally registered
 trademark of Gaussian, Inc.
  
 This software contains proprietary and confidential information,
 including trade secrets, belonging to Gaussian, Inc.
  
 This software is provided under written license and may be
 used, copied, transmitted, or stored only in accord with that
 written license.
  
 The following legend is applicable only to US Government
 contracts under FAR:
  
                    RESTRICTED RIGHTS LEGEND
  
 Use, reproduction and disclosure by the US Government is
 subject to restrictions as set forth in subparagraphs (a)
 and (c) of the Commercial Computer Software - Restricted
 Rights clause in FAR 52.227-19.
  
 Gaussian, Inc.
 340 Quinnipiac St., Bldg. 40, Wallingford CT 06492
  
  
 ---------------------------------------------------------------
 Warning -- This program may not be used in any manner that
 competes with the business of Gaussian, Inc. or will provide
 assistance to any competitor of Gaussian, Inc.  The licensee
 of this program is prohibited from giving any competitor of
 Gaussian, Inc. access to this program.  By using this program,
 the user acknowledges that Gaussian, Inc. is engaged in the
 business of creating and licensing software in the field of
 computational chemistry and represents and warrants to the
 licensee that it is not a competitor of Gaussian, Inc. and that
 it will not use this program in any manner prohibited above.
 ---------------------------------------------------------------
  

 Cite this work as:
 Gaussian 03, Revision C.02,
 M. J. Frisch, G. W. Trucks, H. B. Schlegel, G. E. Scuseria, 
 M. A. Robb, J. R. Cheeseman, J. A. Montgomery, Jr., T. Vreven, 
 K. N. Kudin, J. C. Burant, J. M. Millam, S. S. Iyengar, J. Tomasi, 
 V. Barone, B. Mennucci, M. Cossi, G. Scalmani, N. Rega, 
 G. A. Petersson, H. Nakatsuji, M. Hada, M. Ehara, K. Toyota, 
 R. Fukuda, J. Hasegawa, M. Ishida, T. Nakajima, Y. Honda, O. Kitao, 
 H. Nakai, M. Klene, X. Li, J. E. Knox, H. P. Hratchian, J. B. Cross, 
 C. Adamo, J. Jaramillo, R. Gomperts, R. E. Stratmann, O. Yazyev, 
 A. J. Austin, R. Cammi, C. Pomelli, J. W. Ochterski, P. Y. Ayala, 
 K. Morokuma, G. A. Voth, P. Salvador, J. J. Dannenberg, 
 V. G. Zakrzewski, S. Dapprich, A. D. Daniels, M. C. Strain, 
 O. Farkas, D. K. Malick, A. D. Rabuck, K. Raghavachari, 
 J. B. Foresman, J. V. Ortiz, Q. Cui, A. G. Baboul, S. Clifford, 
 J. Cioslowski, B. B. Stefanov, G. Liu, A. Liashenko, P. Piskorz, 
 I. Komaromi, R. L. Martin, D. J. Fox, T. Keith, M. A. Al-Laham, 
 C. Y. Peng, A. Nanayakkara, M. Challacombe, P. M. W. Gill, 
 B. Johnson, W. Chen, M. W. Wong, C. Gonzalez, and J. A. Pople, 
 Gaussian, Inc., Wallingford CT, 2004.
 
 ******************************************
 Gaussian 03:  AM64L-G03RevC.02 12-Jun-2004
                10-Apr-2013 
 ******************************************
 ----------------------------------------------------------------------
 #P MP2 6-31G** iop(6/7=3) gfinput pop=full # opt=(ts,noeig,calcfc) fre
 q
 ----------------------------------------------------------------------
 1/5=1,10=4,11=1,18=20,38=1/1,3;
 2/9=110,17=6,18=5,40=1/2;
 3/5=1,6=6,7=101,11=9,16=1,24=10,25=1,30=1/1,2,3;
 4//1;
 5/5=2,38=5/2;
 8/6=3,8=1,10=2,19=11,30=-1/1;
 9/15=3,16=-3/6;
 11/6=1,8=1,15=11,17=12,24=-1,27=1,28=-2,29=300,32=6,42=3/1,2,10;
 10/6=2,21=1/2;
 8/6=4,8=1,10=2,19=11,30=-1/11,4;
 10/5=1,20=4/2;
 11/12=2,14=11,16=1,17=2,28=-2,42=3/2,10,12;
 6/7=3/1;
 7/10=1,12=2,25=1,44=2/1,2,3,16;
 1/5=1,10=4,11=1,18=20/3(1);
 99//99;
 2/9=110/2;
 3/5=1,6=6,7=101,11=9,16=1,25=1,30=1/1,2,3;
 4/5=5,16=3/1;
 5/5=2,38=5/2;
 8/6=4,10=2/1;
 9/15=2,16=-3/6;
 10/5=1/2;
 7/12=2/1,2,3,16;
 1/5=1,11=1,18=20/3(-8);
 2/9=110/2;
 6/7=3/1;
 99//99;
 Leave Link    1 at Wed Apr 10 02:59:05 2013, MaxMem=          0 cpu:       0.1
 (Enter /soft/g03/g03/l101.exe)
 ---
 job
 ---
 Symbolic Z-matrix:
 Charge =  0 Multiplicity = 2
 C                     0.        0.        0. 
 H                     0.        0.        1.08308 
 H                     1.00246   0.       -0.41003 
 H                    -0.61083  -0.79487  -0.41003 
 H                    -0.55163   1.11998  -0.3704 
 H                    -0.93767   1.90771  -0.63093 
 
                    Isotopes and Nuclear Properties:

  Atom         1           2           3           4           5           6
 IAtWgt=          12           1           1           1           1           1
 AtmWgt=  12.0000000   1.0078250   1.0078250   1.0078250   1.0078250   1.0078250
 IAtSpn=           0           1           1           1           1           1
 AtZEff=   0.0000000   0.0000000   0.0000000   0.0000000   0.0000000   0.0000000
 AtQMom=   0.0000000   0.0000000   0.0000000   0.0000000   0.0000000   0.0000000
 AtGFac=   0.0000000   2.7928460   2.7928460   2.7928460   2.7928460   2.7928460
 Leave Link  101 at Wed Apr 10 02:59:05 2013, MaxMem=    6291456 cpu:       0.0
 (Enter /soft/g03/g03/l103.exe)

 GradGradGradGradGradGradGradGradGradGradGradGradGradGradGradGradGradGrad
 Berny optimization.
 Initialization pass.
                           ----------------------------
                           !    Initial Parameters    !
                           ! (Angstroms and Degrees)  !
 --------------------------                            --------------------------
 ! Name  Definition              Value          Derivative Info.                !
 --------------------------------------------------------------------------------
 ! R1    R(1,2)                  1.0831         calculate D2E/DX2 analytically  !
 ! R2    R(1,3)                  1.0831         calculate D2E/DX2 analytically  !
 ! R3    R(1,4)                  1.0831         calculate D2E/DX2 analytically  !
 ! R4    R(1,5)                  1.3023         calculate D2E/DX2 analytically  !
 ! R5    R(5,6)                  0.9151         calculate D2E/DX2 analytically  !
 ! A1    A(2,1,3)              112.2457         calculate D2E/DX2 analytically  !
 ! A2    A(2,1,4)              112.2457         calculate D2E/DX2 analytically  !
 ! A3    A(2,1,5)              106.5249         calculate D2E/DX2 analytically  !
 ! A4    A(3,1,4)              112.2518         calculate D2E/DX2 analytically  !
 ! A5    A(3,1,5)              106.5225         calculate D2E/DX2 analytically  !
 ! A6    A(4,1,5)              106.5348         calculate D2E/DX2 analytically  !
 ! A7    L(1,5,6,3,-1)         179.8969         calculate D2E/DX2 analytically  !
 ! A8    L(1,5,6,3,-2)         180.0758         calculate D2E/DX2 analytically  !
 --------------------------------------------------------------------------------
 Trust Radius=3.00D-01 FncErr=1.00D-07 GrdErr=1.00D-07
 Number of steps in this run=  23 maximum allowed number of steps= 100.
 Search for a saddle point of order  1.
 GradGradGradGradGradGradGradGradGradGradGradGradGradGradGradGradGradGrad

 Leave Link  103 at Wed Apr 10 02:59:05 2013, MaxMem=    6291456 cpu:       0.0
 (Enter /soft/g03/g03/l202.exe)
                          Input orientation:                          
 ---------------------------------------------------------------------
 Center     Atomic     Atomic              Coordinates (Angstroms)
 Number     Number      Type              X           Y           Z
 ---------------------------------------------------------------------
    1          6             0        0.000000    0.000000    0.000000
    2          1             0        0.000000    0.000000    1.083082
    3          1             0        1.002460    0.000000   -0.410029
    4          1             0       -0.610830   -0.794867   -0.410029
    5          1             0       -0.551634    1.119983   -0.370401
    6          1             0       -0.937666    1.907714   -0.630927
 ---------------------------------------------------------------------
                    Distance matrix (angstroms):
                    1          2          3          4          5
     1  C    0.000000
     2  H    1.083082   0.000000
     3  H    1.083074   1.798418   0.000000
     4  H    1.083075   1.798418   1.798477   0.000000
     5  H    1.302251   1.916057   1.916022   1.916175   0.000000
     6  H    2.217354   2.730644   2.729882   2.731220   0.915104
                    6
     6  H    0.000000
 Stoichiometry    CH5(2)
 Framework group  C1[X(CH5)]
 Deg. of freedom    12
 Full point group                 C1      NOp   1
 Largest Abelian subgroup         C1      NOp   1
 Largest concise Abelian subgroup C1      NOp   1
                         Standard orientation:                         
 ---------------------------------------------------------------------
 Center     Atomic     Atomic              Coordinates (Angstroms)
 Number     Number      Type              X           Y           Z
 ---------------------------------------------------------------------
    1          6             0       -0.235935   -0.000013   -0.000013
    2          1             0       -0.544108   -0.001671    1.038299
    3          1             0       -0.543200   -0.898836   -0.520354
    4          1             0       -0.544817    0.899638   -0.517962
    5          1             0        1.066316    0.000995    0.000127
    6          1             0        1.981419   -0.000050   -0.000030
 ---------------------------------------------------------------------
 Rotational constants (GHZ):    155.0391491     61.7857121     61.7846404
 Leave Link  202 at Wed Apr 10 02:59:05 2013, MaxMem=    6291456 cpu:       0.0
 (Enter /soft/g03/g03/l301.exe)
 Standard basis: 6-31G(d,p) (6D, 7F)
 AO basis set in the form of general basis input:
  1 0
 S   6 1.00       0.000000000000
      0.3047524880D+04  0.1834737132D-02
      0.4573695180D+03  0.1403732281D-01
      0.1039486850D+03  0.6884262226D-01
      0.2921015530D+02  0.2321844432D+00
      0.9286662960D+01  0.4679413484D+00
      0.3163926960D+01  0.3623119853D+00
 SP   3 1.00       0.000000000000
      0.7868272350D+01 -0.1193324198D+00  0.6899906659D-01
      0.1881288540D+01 -0.1608541517D+00  0.3164239610D+00
      0.5442492580D+00  0.1143456438D+01  0.7443082909D+00
 SP   1 1.00       0.000000000000
      0.1687144782D+00  0.1000000000D+01  0.1000000000D+01
 D   1 1.00       0.000000000000
      0.8000000000D+00  0.1000000000D+01
 ****
  2 0
 S   3 1.00       0.000000000000
      0.1873113696D+02  0.3349460434D-01
      0.2825394365D+01  0.2347269535D+00
      0.6401216923D+00  0.8137573261D+00
 S   1 1.00       0.000000000000
      0.1612777588D+00  0.1000000000D+01
 P   1 1.00       0.000000000000
      0.1100000000D+01  0.1000000000D+01
 ****
  3 0
 S   3 1.00       0.000000000000
      0.1873113696D+02  0.3349460434D-01
      0.2825394365D+01  0.2347269535D+00
      0.6401216923D+00  0.8137573261D+00
 S   1 1.00       0.000000000000
      0.1612777588D+00  0.1000000000D+01
 P   1 1.00       0.000000000000
      0.1100000000D+01  0.1000000000D+01
 ****
  4 0
 S   3 1.00       0.000000000000
      0.1873113696D+02  0.3349460434D-01
      0.2825394365D+01  0.2347269535D+00
      0.6401216923D+00  0.8137573261D+00
 S   1 1.00       0.000000000000
      0.1612777588D+00  0.1000000000D+01
 P   1 1.00       0.000000000000
      0.1100000000D+01  0.1000000000D+01
 ****
  5 0
 S   3 1.00       0.000000000000
      0.1873113696D+02  0.3349460434D-01
      0.2825394365D+01  0.2347269535D+00
      0.6401216923D+00  0.8137573261D+00
 S   1 1.00       0.000000000000
      0.1612777588D+00  0.1000000000D+01
 P   1 1.00       0.000000000000
      0.1100000000D+01  0.1000000000D+01
 ****
  6 0
 S   3 1.00       0.000000000000
      0.1873113696D+02  0.3349460434D-01
      0.2825394365D+01  0.2347269535D+00
      0.6401216923D+00  0.8137573261D+00
 S   1 1.00       0.000000000000
      0.1612777588D+00  0.1000000000D+01
 P   1 1.00       0.000000000000
      0.1100000000D+01  0.1000000000D+01
 ****

 There are    40 symmetry adapted basis functions of A   symmetry.
 Integral buffers will be    131072 words long.
 Raffenetti 2 integral format.
 Two-electron integral symmetry is turned on.
    40 basis functions,    63 primitive gaussians,    40 cartesian basis functions
     6 alpha electrons        5 beta electrons
       nuclear repulsion energy        15.5355302141 Hartrees.
 IExCor=   0 DFT=F Ex=HF Corr=None ExCW=0 ScaHFX=  1.000000
 ScaDFX=  1.000000  1.000000  1.000000  1.000000
 IRadAn=      0 IRanWt=     -1 IRanGd=            0 ICorTp=0
 NAtoms=    6 NActive=    6 NUniq=    6 SFac= 1.00D+00 NAtFMM=   60 Big=F
 Leave Link  301 at Wed Apr 10 02:59:05 2013, MaxMem=    6291456 cpu:       0.0
 (Enter /soft/g03/g03/l302.exe)
 NPDir=0 NMtPBC=     1 NCelOv=     1 NCel=       1 NClECP=     1 NCelD=      1
         NCelK=      1 NCelE2=     1 NClLst=     1 CellRange=     0.0.
 One-electron integrals computed using PRISM.
 NBasis=    40 RedAO= T  NBF=    40
 NBsUse=    40 1.00D-06 NBFU=    40
 Leave Link  302 at Wed Apr 10 02:59:05 2013, MaxMem=    6291456 cpu:       0.1
 (Enter /soft/g03/g03/l303.exe)
 DipDrv:  MaxL=1.
 Leave Link  303 at Wed Apr 10 02:59:05 2013, MaxMem=    6291456 cpu:       0.0
 (Enter /soft/g03/g03/l401.exe)
 Harris functional with IExCor=  205 diagonalized for initial guess.
 ExpMin= 1.61D-01 ExpMax= 3.05D+03 ExpMxC= 4.57D+02 IAcc=1 IRadAn=         1 AccDes= 1.00D-06
 HarFok:  IExCor= 205 AccDes= 1.00D-06 IRadAn=         1 IDoV=1
 ScaDFX=  1.000000  1.000000  1.000000  1.000000
 Harris En= -40.8423574497218    
 Initial guess orbital symmetries:
 Alpha Orbitals:
       Occupied  (A) (A) (A) (A) (A) (A)
       Virtual   (A) (A) (A) (A) (A) (A) (A) (A) (A) (A) (A) (A)
                 (A) (A) (A) (A) (A) (A) (A) (A) (A) (A) (A) (A)
                 (A) (A) (A) (A) (A) (A) (A) (A) (A) (A)
 Beta  Orbitals:
       Occupied  (A) (A) (A) (A) (A)
       Virtual   (A) (A) (A) (A) (A) (A) (A) (A) (A) (A) (A) (A)
                 (A) (A) (A) (A) (A) (A) (A) (A) (A) (A) (A) (A)
                 (A) (A) (A) (A) (A) (A) (A) (A) (A) (A) (A)
 The electronic state of the initial guess is 2-A.
 <S**2> of initial guess= 0.7500
 Leave Link  401 at Wed Apr 10 02:59:05 2013, MaxMem=    6291456 cpu:       0.1
 (Enter /soft/g03/g03/l502.exe)
 UHF open shell SCF:
 Requested convergence on RMS density matrix=1.00D-08 within 128 cycles.
 Requested convergence on MAX density matrix=1.00D-06.
 Requested convergence on             energy=1.00D-06.
 No special actions if energy rises.
 Using DIIS extrapolation, IDIIS=  1040.
 Integral symmetry usage will be decided dynamically.
 Keep R1 and R2 integrals in memory in canonical form, NReq=     1550873.
 IEnd=     23199 IEndB=     23199 NGot=   6291456 MDV=   5613304
 LenX=   5613304
 Symmetry not used in FoFDir.
 MinBra= 0 MaxBra= 2 Meth= 1.
 IRaf=       0 NMat=   1 IRICut=       1 DoRegI=T DoRafI=F ISym2E= 0 JSym2E=0.

 Cycle   1  Pass 1  IDiag  1:
 E= -40.5258667377416    
 DIIS: error= 5.69D-02 at cycle   1 NSaved=   1.
 NSaved= 1 IEnMin= 1 EnMin= -40.5258667377416     IErMin= 1 ErrMin= 5.69D-02
 ErrMax= 5.69D-02 EMaxC= 1.00D-01 BMatC= 5.47D-01 BMatP= 5.47D-01
 IDIUse=3 WtCom= 4.31D-01 WtEn= 5.69D-01
 Coeff-Com:  0.100D+01
 Coeff-En:   0.100D+01
 Coeff:      0.100D+01
 Gap=     0.619 Goal=   None    Shift=    0.000
 Gap=     0.586 Goal=   None    Shift=    0.000
 GapD=    0.586 DampG=2.000 DampE=0.500 DampFc=1.0000 IDamp=-1.
 RMSDP=1.14D-02 MaxDP=1.93D-01              OVMax= 1.77D-01

 Cycle   2  Pass 1  IDiag  1:
 E= -40.6356450794456     Delta-E=       -0.109778341704 Rises=F Damp=F
 DIIS: error= 2.18D-02 at cycle   2 NSaved=   2.
 NSaved= 2 IEnMin= 2 EnMin= -40.6356450794456     IErMin= 2 ErrMin= 2.18D-02
 ErrMax= 2.18D-02 EMaxC= 1.00D-01 BMatC= 9.61D-02 BMatP= 5.47D-01
 IDIUse=3 WtCom= 7.82D-01 WtEn= 2.18D-01
 Coeff-Com:  0.258D+00 0.742D+00
 Coeff-En:   0.000D+00 0.100D+01
 Coeff:      0.202D+00 0.798D+00
 Gap=     0.625 Goal=   None    Shift=    0.000
 Gap=     0.668 Goal=   None    Shift=    0.000
 RMSDP=3.78D-03 MaxDP=6.01D-02 DE=-1.10D-01 OVMax= 5.13D-02

 Cycle   3  Pass 1  IDiag  1:
 E= -40.6594024130136     Delta-E=       -0.023757333568 Rises=F Damp=F
 DIIS: error= 5.87D-03 at cycle   3 NSaved=   3.
 NSaved= 3 IEnMin= 3 EnMin= -40.6594024130136     IErMin= 3 ErrMin= 5.87D-03
 ErrMax= 5.87D-03 EMaxC= 1.00D-01 BMatC= 3.30D-03 BMatP= 9.61D-02
 IDIUse=3 WtCom= 9.41D-01 WtEn= 5.87D-02
 Coeff-Com: -0.489D-01 0.230D-01 0.103D+01
 Coeff-En:   0.000D+00 0.000D+00 0.100D+01
 Coeff:     -0.460D-01 0.216D-01 0.102D+01
 Gap=     0.613 Goal=   None    Shift=    0.000
 Gap=     0.639 Goal=   None    Shift=    0.000
 RMSDP=1.15D-03 MaxDP=2.57D-02 DE=-2.38D-02 OVMax= 2.04D-02

 Cycle   4  Pass 1  IDiag  1:
 E= -40.6609287975802     Delta-E=       -0.001526384567 Rises=F Damp=F
 DIIS: error= 2.34D-03 at cycle   4 NSaved=   4.
 NSaved= 4 IEnMin= 4 EnMin= -40.6609287975802     IErMin= 4 ErrMin= 2.34D-03
 ErrMax= 2.34D-03 EMaxC= 1.00D-01 BMatC= 4.49D-04 BMatP= 3.30D-03
 IDIUse=3 WtCom= 9.77D-01 WtEn= 2.34D-02
 Coeff-Com:  0.238D-01-0.602D-01-0.788D+00 0.182D+01
 Coeff-En:   0.000D+00 0.000D+00 0.000D+00 0.100D+01
 Coeff:      0.233D-01-0.588D-01-0.770D+00 0.181D+01
 Gap=     0.618 Goal=   None    Shift=    0.000
 Gap=     0.650 Goal=   None    Shift=    0.000
 RMSDP=8.65D-04 MaxDP=2.09D-02 DE=-1.53D-03 OVMax= 1.49D-02

 Cycle   5  Pass 1  IDiag  1:
 E= -40.6612941950127     Delta-E=       -0.000365397432 Rises=F Damp=F
 DIIS: error= 4.57D-04 at cycle   5 NSaved=   5.
 NSaved= 5 IEnMin= 5 EnMin= -40.6612941950127     IErMin= 5 ErrMin= 4.57D-04
 ErrMax= 4.57D-04 EMaxC= 1.00D-01 BMatC= 2.19D-05 BMatP= 4.49D-04
 IDIUse=3 WtCom= 9.95D-01 WtEn= 4.57D-03
 Coeff-Com: -0.912D-02 0.290D-01 0.342D+00-0.915D+00 0.155D+01
 Coeff-En:   0.000D+00 0.000D+00 0.000D+00 0.000D+00 0.100D+01
 Coeff:     -0.908D-02 0.289D-01 0.340D+00-0.911D+00 0.155D+01
 Gap=     0.618 Goal=   None    Shift=    0.000
 Gap=     0.652 Goal=   None    Shift=    0.000
 RMSDP=1.46D-04 MaxDP=1.98D-03 DE=-3.65D-04 OVMax= 2.74D-03

 Cycle   6  Pass 1  IDiag  1:
 E= -40.6613150633030     Delta-E=       -0.000020868290 Rises=F Damp=F
 DIIS: error= 1.80D-04 at cycle   6 NSaved=   6.
 NSaved= 6 IEnMin= 6 EnMin= -40.6613150633030     IErMin= 6 ErrMin= 1.80D-04
 ErrMax= 1.80D-04 EMaxC= 1.00D-01 BMatC= 3.54D-06 BMatP= 2.19D-05
 IDIUse=3 WtCom= 9.98D-01 WtEn= 1.80D-03
 Coeff-Com:  0.213D-02-0.828D-02-0.931D-01 0.278D+00-0.828D+00 0.165D+01
 Coeff-En:   0.000D+00 0.000D+00 0.000D+00 0.000D+00 0.000D+00 0.100D+01
 Coeff:      0.212D-02-0.826D-02-0.929D-01 0.278D+00-0.827D+00 0.165D+01
 Gap=     0.619 Goal=   None    Shift=    0.000
 Gap=     0.652 Goal=   None    Shift=    0.000
 RMSDP=9.64D-05 MaxDP=1.68D-03 DE=-2.09D-05 OVMax= 1.46D-03

 Cycle   7  Pass 1  IDiag  1:
 E= -40.6613195474698     Delta-E=       -0.000004484167 Rises=F Damp=F
 DIIS: error= 7.37D-05 at cycle   7 NSaved=   7.
 NSaved= 7 IEnMin= 7 EnMin= -40.6613195474698     IErMin= 7 ErrMin= 7.37D-05
 ErrMax= 7.37D-05 EMaxC= 1.00D-01 BMatC= 5.92D-07 BMatP= 3.54D-06
 IDIUse=1 WtCom= 1.00D+00 WtEn= 0.00D+00
 Coeff-Com:  0.806D-03-0.209D-02-0.225D-01 0.468D-01 0.866D-01-0.808D+00
 Coeff-Com:  0.170D+01
 Coeff:      0.806D-03-0.209D-02-0.225D-01 0.468D-01 0.866D-01-0.808D+00
 Coeff:      0.170D+01
 Gap=     0.618 Goal=   None    Shift=    0.000
 Gap=     0.652 Goal=   None    Shift=    0.000
 RMSDP=5.21D-05 MaxDP=8.94D-04 DE=-4.48D-06 OVMax= 8.81D-04

 Cycle   8  Pass 1  IDiag  1:
 E= -40.6613203867706     Delta-E=       -0.000000839301 Rises=F Damp=F
 DIIS: error= 2.01D-05 at cycle   8 NSaved=   8.
 NSaved= 8 IEnMin= 8 EnMin= -40.6613203867706     IErMin= 8 ErrMin= 2.01D-05
 ErrMax= 2.01D-05 EMaxC= 1.00D-01 BMatC= 3.15D-08 BMatP= 5.92D-07
 IDIUse=1 WtCom= 1.00D+00 WtEn= 0.00D+00
 Coeff-Com: -0.390D-03 0.122D-02 0.145D-01-0.369D-01 0.474D-01 0.100D+00
 Coeff-Com: -0.560D+00 0.143D+01
 Coeff:     -0.390D-03 0.122D-02 0.145D-01-0.369D-01 0.474D-01 0.100D+00
 Coeff:     -0.560D+00 0.143D+01
 Gap=     0.618 Goal=   None    Shift=    0.000
 Gap=     0.652 Goal=   None    Shift=    0.000
 RMSDP=8.74D-06 MaxDP=1.63D-04 DE=-8.39D-07 OVMax= 2.13D-04

 Cycle   9  Pass 1  IDiag  1:
 E= -40.6613204200661     Delta-E=       -0.000000033295 Rises=F Damp=F
 DIIS: error= 4.41D-06 at cycle   9 NSaved=   9.
 NSaved= 9 IEnMin= 9 EnMin= -40.6613204200661     IErMin= 9 ErrMin= 4.41D-06
 ErrMax= 4.41D-06 EMaxC= 1.00D-01 BMatC= 7.29D-10 BMatP= 3.15D-08
 IDIUse=1 WtCom= 1.00D+00 WtEn= 0.00D+00
 Coeff-Com:  0.911D-04-0.294D-03-0.366D-02 0.958D-02-0.171D-01 0.107D-02
 Coeff-Com:  0.961D-01-0.373D+00 0.129D+01
 Coeff:      0.911D-04-0.294D-03-0.366D-02 0.958D-02-0.171D-01 0.107D-02
 Coeff:      0.961D-01-0.373D+00 0.129D+01
 Gap=     0.618 Goal=   None    Shift=    0.000
 Gap=     0.652 Goal=   None    Shift=    0.000
 RMSDP=8.37D-07 MaxDP=1.38D-05 DE=-3.33D-08 OVMax= 2.06D-05

 Cycle  10  Pass 1  IDiag  1:
 E= -40.6613204206240     Delta-E=       -0.000000000558 Rises=F Damp=F
 DIIS: error= 1.67D-06 at cycle  10 NSaved=  10.
 NSaved=10 IEnMin=10 EnMin= -40.6613204206240     IErMin=10 ErrMin= 1.67D-06
 ErrMax= 1.67D-06 EMaxC= 1.00D-01 BMatC= 1.05D-10 BMatP= 7.29D-10
 IDIUse=1 WtCom= 1.00D+00 WtEn= 0.00D+00
 Coeff-Com: -0.317D-04 0.988D-04 0.139D-02-0.365D-02 0.767D-02-0.592D-02
 Coeff-Com: -0.299D-01 0.164D+00-0.848D+00 0.171D+01
 Coeff:     -0.317D-04 0.988D-04 0.139D-02-0.365D-02 0.767D-02-0.592D-02
 Coeff:     -0.299D-01 0.164D+00-0.848D+00 0.171D+01
 Gap=     0.618 Goal=   None    Shift=    0.000
 Gap=     0.652 Goal=   None    Shift=    0.000
 RMSDP=3.91D-07 MaxDP=4.33D-06 DE=-5.58D-10 OVMax= 9.34D-06

 Cycle  11  Pass 1  IDiag  1:
 E= -40.6613204207359     Delta-E=       -0.000000000112 Rises=F Damp=F
 DIIS: error= 6.62D-07 at cycle  11 NSaved=  11.
 NSaved=11 IEnMin=11 EnMin= -40.6613204207359     IErMin=11 ErrMin= 6.62D-07
 ErrMax= 6.62D-07 EMaxC= 1.00D-01 BMatC= 1.22D-11 BMatP= 1.05D-10
 IDIUse=1 WtCom= 1.00D+00 WtEn= 0.00D+00
 Coeff-Com:  0.116D-04-0.357D-04-0.540D-03 0.139D-02-0.307D-02 0.289D-02
 Coeff-Com:  0.108D-01-0.703D-01 0.440D+00-0.122D+01 0.184D+01
 Coeff:      0.116D-04-0.357D-04-0.540D-03 0.139D-02-0.307D-02 0.289D-02
 Coeff:      0.108D-01-0.703D-01 0.440D+00-0.122D+01 0.184D+01
 Gap=     0.618 Goal=   None    Shift=    0.000
 Gap=     0.652 Goal=   None    Shift=    0.000
 RMSDP=2.03D-07 MaxDP=3.54D-06 DE=-1.12D-10 OVMax= 5.60D-06

 Cycle  12  Pass 1  IDiag  1:
 E= -40.6613204207536     Delta-E=       -0.000000000018 Rises=F Damp=F
 DIIS: error= 1.11D-07 at cycle  12 NSaved=  12.
 NSaved=12 IEnMin=12 EnMin= -40.6613204207536     IErMin=12 ErrMin= 1.11D-07
 ErrMax= 1.11D-07 EMaxC= 1.00D-01 BMatC= 6.17D-13 BMatP= 1.22D-11
 IDIUse=1 WtCom= 1.00D+00 WtEn= 0.00D+00
 Coeff-Com: -0.260D-05 0.769D-05 0.130D-03-0.322D-03 0.751D-03-0.791D-03
 Coeff-Com: -0.273D-02 0.191D-01-0.130D+00 0.403D+00-0.806D+00 0.152D+01
 Coeff:     -0.260D-05 0.769D-05 0.130D-03-0.322D-03 0.751D-03-0.791D-03
 Coeff:     -0.273D-02 0.191D-01-0.130D+00 0.403D+00-0.806D+00 0.152D+01
 Gap=     0.618 Goal=   None    Shift=    0.000
 Gap=     0.652 Goal=   None    Shift=    0.000
 RMSDP=6.99D-08 MaxDP=1.51D-06 DE=-1.77D-11 OVMax= 1.13D-06

 Cycle  13  Pass 1  IDiag  1:
 E= -40.6613204207547     Delta-E=       -0.000000000001 Rises=F Damp=F
 DIIS: error= 2.19D-08 at cycle  13 NSaved=  13.
 NSaved=13 IEnMin=13 EnMin= -40.6613204207547     IErMin=13 ErrMin= 2.19D-08
 ErrMax= 2.19D-08 EMaxC= 1.00D-01 BMatC= 3.65D-14 BMatP= 6.17D-13
 IDIUse=1 WtCom= 1.00D+00 WtEn= 0.00D+00
 Coeff-Com:  0.494D-06-0.132D-05-0.286D-04 0.667D-04-0.174D-03 0.240D-03
 Coeff-Com:  0.561D-03-0.477D-02 0.370D-01-0.125D+00 0.281D+00-0.746D+00
 Coeff-Com:  0.156D+01
 Coeff:      0.494D-06-0.132D-05-0.286D-04 0.667D-04-0.174D-03 0.240D-03
 Coeff:      0.561D-03-0.477D-02 0.370D-01-0.125D+00 0.281D+00-0.746D+00
 Coeff:      0.156D+01
 Gap=     0.618 Goal=   None    Shift=    0.000
 Gap=     0.652 Goal=   None    Shift=    0.000
 RMSDP=1.59D-08 MaxDP=3.75D-07 DE=-1.07D-12 OVMax= 1.97D-07

 Cycle  14  Pass 1  IDiag  1:
 E= -40.6613204207548     Delta-E=        0.000000000000 Rises=F Damp=F
 DIIS: error= 2.89D-09 at cycle  14 NSaved=  14.
 NSaved=14 IEnMin=14 EnMin= -40.6613204207548     IErMin=14 ErrMin= 2.89D-09
 ErrMax= 2.89D-09 EMaxC= 1.00D-01 BMatC= 7.24D-16 BMatP= 3.65D-14
 IDIUse=1 WtCom= 1.00D+00 WtEn= 0.00D+00
 Coeff-Com: -0.644D-07 0.169D-06 0.420D-05-0.907D-05 0.261D-04-0.408D-04
 Coeff-Com: -0.762D-04 0.770D-03-0.644D-02 0.228D-01-0.541D-01 0.170D+00
 Coeff-Com: -0.456D+00 0.132D+01
 Coeff:     -0.644D-07 0.169D-06 0.420D-05-0.907D-05 0.261D-04-0.408D-04
 Coeff:     -0.762D-04 0.770D-03-0.644D-02 0.228D-01-0.541D-01 0.170D+00
 Coeff:     -0.456D+00 0.132D+01
 Gap=     0.618 Goal=   None    Shift=    0.000
 Gap=     0.652 Goal=   None    Shift=    0.000
 RMSDP=9.24D-10 MaxDP=1.16D-08 DE=-9.24D-14 OVMax= 1.35D-08

 SCF Done:  E(UHF) =  -40.6613204208     A.U. after   14 cycles
             Convg  =    0.9242D-09             -V/T =  1.9994
             S**2   =   0.7827
 KE= 4.068544406278D+01 PE=-1.249291756080D+02 EE= 2.804688091042D+01
 Annihilation of the first spin contaminant:
 S**2 before annihilation     0.7827,   after     0.7502
 Leave Link  502 at Wed Apr 10 02:59:05 2013, MaxMem=    6291456 cpu:       0.1
 (Enter /soft/g03/g03/l801.exe)
 ExpMin= 1.61D-01 ExpMax= 3.05D+03 ExpMxC= 4.57D+02 IAcc=1 IRadAn=         1 AccDes= 1.00D-06
 HarFok:  IExCor= 205 AccDes= 1.00D-06 IRadAn=         1 IDoV=1
 ScaDFX=  1.000000  1.000000  1.000000  1.000000
 Largest valence mixing into a core orbital is  1.63D-04
 Largest core mixing into a valence orbital is  2.29D-05
 Largest valence mixing into a core orbital is  1.97D-04
 Largest core mixing into a valence orbital is  3.18D-05
 Range of M.O.s used for correlation:     2    40
 NBasis=    40 NAE=     6 NBE=     5 NFC=     1 NFV=     0
 NROrb=     39 NOA=     5 NOB=     4 NVA=    34 NVB=    35
 Leave Link  801 at Wed Apr 10 02:59:05 2013, MaxMem=    6291456 cpu:       0.0
 (Enter /soft/g03/g03/l906.exe)
 Frozen-core derivative calculation, NFC=   1 NFV=   0.
 FulOut=F Deriv=T AODrv=T NAtomX=     6
   MMem=           0  MDisk=           5 MDiskD=           5
  W3Min=       19200 MinDsk=      102260 NBas6D=          40
 NBas2D=         862    NTT=         820    LW2=     3000000
    MDV=     6280212 MDiskM=        2277 NBas2p=         862
 Disk-based method using ON**2 memory for  5 occupieds at a time.
 Permanent disk used for amplitudes=       50065 words.
 Estimated scratch disk usage=     1096240 words.
 IMap=   1   2   3   4   5   6
 Actual    scratch disk usage=     1096240 words.
 JobTyp=2 Pass  1:  I=   2 to   6 NPSUse=  1 ParTrn=F ParDer=F DoDerP=T.
 (rs|ai) integrals will be sorted in core.
 IMap=   1   2   3   4   5
 Actual    scratch disk usage=     1096240 words.
 JobTyp=3 Pass  1:  I=   2 to   5 NPSUse=  1 ParTrn=F ParDer=F DoDerP=T.
 (rs|ai) integrals will be sorted in core.
 Spin components of T(2) and E(2):
     alpha-alpha T2 =       0.6104424910D-02 E2=     -0.1868512590D-01
     alpha-beta  T2 =       0.4342680807D-01 E2=     -0.1372793827D+00
     beta-beta   T2 =       0.3999739481D-02 E2=     -0.1150622500D-01
 The integrals were generated   2 times.
 (S**2,0)=  0.78266D+00           (S**2,1)=  0.76068D+00
 E(PUHF)=      -0.40668228134D+02        E(PMP2)=      -0.40833383457D+02
 ANorm=    0.1026416569D+01
 E2 =    -0.1674707336D+00 EUMP2 =    -0.40828791154322D+02
 Leave Link  906 at Wed Apr 10 02:59:09 2013, MaxMem=    6291456 cpu:       4.0
 (Enter /soft/g03/g03/l1101.exe)
 Using compressed Sx but separate Hx and Fx, NAtomX=     6.
 Will process   7 centers per pass.
 Leave Link 1101 at Wed Apr 10 02:59:09 2013, MaxMem=    6291456 cpu:       0.1
 (Enter /soft/g03/g03/l1102.exe)
 Use density number 0.
 Leave Link 1102 at Wed Apr 10 02:59:09 2013, MaxMem=    6291456 cpu:       0.0
 (Enter /soft/g03/g03/l1110.exe)
 Forming Gx(P) for the SCF density, NAtomX=     6.
 Integral derivatives from FoFDir, PRISM(SPDF).
 Do as many integral derivatives as possible in FoFDir.
 G2DrvN: MDV=       6291406.
 G2DrvN: will do    7 centers at a time, making    1 passes doing MaxLOS=2.
 Symmetry not used in FoFDir.
 MinBra= 0 MaxBra= 2 Meth= 1.
 IRaf=       0 NMat=   1 IRICut=       1 DoRegI=T DoRafI=F ISym2E= 0 JSym2E=0.
 FoFDir/FoFCou used for L=0 through L=2.
 Leave Link 1110 at Wed Apr 10 02:59:10 2013, MaxMem=    6291456 cpu:       0.2
 (Enter /soft/g03/g03/l1002.exe)
 Minotr:  UHF wavefunction.
 DoAtom=TTTTTT
          Frozen-core window.
          Direct CPHF calculation.
          Solving linear equations simultaneously.
          Differentiating once with respect to electric field.
                with respect to dipole field.
          Differentiating once with respect to nuclear coordinates.
          Requested convergence is 1.0D-08 RMS, and 1.0D-07 maximum.
          Secondary convergence is 1.0D-12 RMS, and 1.0D-12 maximum.
          NewPWx=T KeepS1=T KeepF1=T KeepIn=T MapXYZ=F.
          MDV=       6291400 using IRadAn=       2.
          Store integrals in memory, NReq=     1493710.
 Symmetry not used in FoFDir.
 MinBra= 0 MaxBra= 2 Meth= 1.
 IRaf=       0 NMat=   1 IRICut=       1 DoRegI=T DoRafI=F ISym2E= 0 JSym2E=0.
          There are  21 degrees of freedom in the 1st order CPHF.
    18 vectors were produced by pass  0.
 AX will form  18 AO Fock derivatives at one time.
    18 vectors were produced by pass  1.
    18 vectors were produced by pass  2.
    18 vectors were produced by pass  3.
    18 vectors were produced by pass  4.
    18 vectors were produced by pass  5.
    12 vectors were produced by pass  6.
     4 vectors were produced by pass  7.
     1 vectors were produced by pass  8.
 Inv2:  IOpt= 1 Iter= 1 AM= 2.72D-15 Conv= 1.00D-12.
 Inverted reduced A of dimension  125 with in-core refinement.
 Saving first derivative matrices.
 End of Minotr Frequency-dependent properties file   721 does not exist.
 Leave Link 1002 at Wed Apr 10 02:59:10 2013, MaxMem=    6291456 cpu:       0.3
 (Enter /soft/g03/g03/l811.exe)
 MDV=     6291456.
 Form MO integral derivatives with frozen-active canonical formalism.
 MOERI=1 MOERIx=1 NAtoms=     6 NAtomA=     6 NAtomX=     6.
 Discarding MO integrals.
 MO basis two electron integral derivatives will not be stored on disk.
 IAlg= 3 DoFC=T DoPWx=T Debug=F.
 Frozen-core window:  NFC=   1 NFV=   0.
             Reordered first order wavefunction length =       207461
 In DefCFB: NBatch=  1, ICI=  6, ICA= 35, LFMax= 12
             Large arrays: LIAPS=     2425600, LIARS=     1764000 words.
  In StABat: MaxSiz= 15 MinSiz= 10 NAtomB=  3
 DoIAMN:  NPSUse=  1.
 In DefCFB: NBatch=  1, ICI=  6, ICA= 35, LFMax= 12
             Large arrays: LIAPS=     2425600, LIARS=     1764000 words.
  In StABat: MaxSiz= 15 MinSiz= 10 NAtomB=  3
 Leave Link  811 at Wed Apr 10 02:59:12 2013, MaxMem=    6291456 cpu:       1.8
 (Enter /soft/g03/g03/l804.exe)
 Frozen-core window:  NFC=   1 NFV=   0.
 Open-shell transformation, MDV=     6291456 ITran=4 ISComp=1.
 Compute canonical integrals, LenV=     5604917.
 Symmetry not used in FoFDir.
 MinBra= 0 MaxBra= 2 Meth= 1.
 IRaf=       0 NMat=   1 IRICut=       1 DoRegI=T DoRafI=F ISym2E= 0 JSym2E=0.
 Compute canonical integrals, LenV=     5604917.
 SymMOI:  orbitals are not symmetric.
 Spin components of T(2) and E(2):
     alpha-alpha T2 =       0.6104424910D-02 E2=     -0.1868512590D-01
     alpha-beta  T2 =       0.4342680807D-01 E2=     -0.1372793827D+00
     beta-beta   T2 =       0.3999739481D-02 E2=     -0.1150622500D-01
 ANorm=    0.1451572232D+01
 E2=       -0.1674707336D+00 EUMP2=       -0.40828791154322D+02
 (S**2,0)=  0.78266D+00           (S**2,1)=  0.76068D+00
 E(PUHF)=      -0.40668228134D+02        E(PMP2)=      -0.40833383457D+02
 Leave Link  804 at Wed Apr 10 02:59:12 2013, MaxMem=    6291456 cpu:       0.2
 (Enter /soft/g03/g03/l1002.exe)
 Minotr:  UHF wavefunction.
          Computing MP2 derivatives.
          Using Z-Vector for PSCF gradient.
          Skipping F1 and S1 gradient terms here.
 DoAtom=TTTTTT
          Frozen-core window.
          Using MO integrals in the linear equations.
          Forming densities via direct SCF.
          Solving linear equations simultaneously.
          Differentiating once with respect to electric field.
                with respect to dipole field.
          Differentiating once with respect to nuclear coordinates.
          Requested convergence is 1.0D-10 RMS, and 1.0D-09 maximum.
          Secondary convergence is 1.0D-12 RMS, and 1.0D-12 maximum.
          NewPWx=F KeepS1=T KeepF1=T KeepIn=T MapXYZ=F.
          MDV=       6291400 using IRadAn=       0.
          There are   1 degrees of freedom in the 1st order CPHF.
 Petite list used in FoFDir.
 MinBra= 0 MaxBra= 2 Meth= 1.
 IRaf=       0 NMat=   1 IRICut=       1 DoRegI=T DoRafI=F ISym2E= 1 JSym2E=1.
     1 vectors were produced by pass  0.
     1 vectors were produced by pass  1.
     1 vectors were produced by pass  2.
     1 vectors were produced by pass  3.
     1 vectors were produced by pass  4.
     1 vectors were produced by pass  5.
     1 vectors were produced by pass  6.
     1 vectors were produced by pass  7.
     1 vectors were produced by pass  8.
     1 vectors were produced by pass  9.
     1 vectors were produced by pass 10.
 Inv2:  IOpt= 1 Iter= 1 AM= 4.12D-16 Conv= 1.00D-12.
 Inverted reduced A of dimension   11 with in-core refinement.
 End of Minotr Frequency-dependent properties file   721 does not exist.
 Leave Link 1002 at Wed Apr 10 02:59:12 2013, MaxMem=    6291456 cpu:       0.2
 (Enter /soft/g03/g03/l1102.exe)
 Use density number 2.
 Symmetrizing basis deriv contribution to polar:
 IMax=3 JMax=2 DiffMx= 0.00D+00
 Leave Link 1102 at Wed Apr 10 02:59:12 2013, MaxMem=    6291456 cpu:       0.0
 (Enter /soft/g03/g03/l1110.exe)
 Forming Gx(P) for generalized density number  2 NAtomX=     6.
 Integral derivatives from FoFDir, PRISM(SPDF).
 Do as many integral derivatives as possible in FoFDir.
 G2DrvN: MDV=       6291406.
 G2DrvN: will do    7 centers at a time, making    1 passes doing MaxLOS=2.
 Symmetry not used in FoFDir.
 MinBra= 0 MaxBra= 2 Meth= 1.
 IRaf=       0 NMat=   1 IRICut=       1 DoRegI=T DoRafI=F ISym2E= 0 JSym2E=0.
 FoFDir/FoFCou used for L=0 through L=2.
 Leave Link 1110 at Wed Apr 10 02:59:13 2013, MaxMem=    6291456 cpu:       0.2
 (Enter /soft/g03/g03/l1112.exe)
 MP22nd: MDV=       6291456
 This link is doing NAtomX=     6 total of    21 degrees of freedom.
 Using ON3 I/O method in MakUI.
 Frozen-core window:  NFC=   1 NFV=   0.
 Using Ix for Sx.
 Use MO integrals over full window.
 Using OV2 memory method for fx*t*t/D, MaxI=  6 Force3=T.
 R2 and R3 integrals will be kept in memory, NReq=     1493220.
 Symmetry not used in FoFDir.
 MinBra= 0 MaxBra= 2 Meth= 1.
 IRaf=       0 NMat=   1 IRICut=       1 DoRegI=T DoRafI=F ISym2E= 0 JSym2E=0.
 DD1Dir will call FoFMem   1 times, MxPair=        86
 NAB=    30 NAA=    15 NBB=    10.
 Symmetry is being used.
 Discarding MO integrals.
 Leave Link 1112 at Wed Apr 10 02:59:14 2013, MaxMem=    6291456 cpu:       0.8
 (Enter /soft/g03/g03/l601.exe)
 Copying SCF densities to generalized density rwf, ISCF=1 IROHF=0.

 **********************************************************************

            Population analysis using the SCF density.

 **********************************************************************

 Orbital symmetries:
 Alpha Orbitals:
       Occupied  (A) (A) (A) (A) (A) (A)
       Virtual   (A) (A) (A) (A) (A) (A) (A) (A) (A) (A) (A) (A)
                 (A) (A) (A) (A) (A) (A) (A) (A) (A) (A) (A) (A)
                 (A) (A) (A) (A) (A) (A) (A) (A) (A) (A)
 Beta  Orbitals:
       Occupied  (A) (A) (A) (A) (A)
       Virtual   (A) (A) (A) (A) (A) (A) (A) (A) (A) (A) (A) (A)
                 (A) (A) (A) (A) (A) (A) (A) (A) (A) (A) (A) (A)
                 (A) (A) (A) (A) (A) (A) (A) (A) (A) (A) (A)
 The electronic state is 2-A.
 Alpha  occ. eigenvalues --  -11.23851  -0.97131  -0.64197  -0.57076  -0.57074
 Alpha  occ. eigenvalues --   -0.36004
 Alpha virt. eigenvalues --    0.25844   0.31532   0.31532   0.36721   0.71095
 Alpha virt. eigenvalues --    0.71095   0.74949   0.90708   1.13272   1.13274
 Alpha virt. eigenvalues --    1.18026   1.20490   1.42571   1.61195   1.61197
 Alpha virt. eigenvalues --    2.05068   2.05069   2.12399   2.32811   2.33314
 Alpha virt. eigenvalues --    2.33317   2.55473   2.55475   2.85058   2.93125
 Alpha virt. eigenvalues --    2.96587   2.96594   3.18960   3.18963   3.56816
 Alpha virt. eigenvalues --    3.79370   3.79373   4.27538   4.93935
  Beta  occ. eigenvalues --  -11.22015  -0.91418  -0.55942  -0.55940  -0.54348
  Beta virt. eigenvalues --    0.10886   0.26873   0.32551   0.32552   0.41623
  Beta virt. eigenvalues --    0.71470   0.71471   0.83455   0.97604   1.14529
  Beta virt. eigenvalues --    1.14531   1.19451   1.24175   1.44992   1.64367
  Beta virt. eigenvalues --    1.64368   2.08820   2.08821   2.17570   2.32551
  Beta virt. eigenvalues --    2.34274   2.34277   2.58693   2.58694   2.86220
  Beta virt. eigenvalues --    2.97118   2.97577   2.97588   3.20090   3.20093
  Beta virt. eigenvalues --    3.57675   3.80141   3.80144   4.30880   4.95895
     Alpha Molecular Orbital Coefficients
                           1         2         3         4         5
                        (A)--O    (A)--O    (A)--O    (A)--O    (A)--O
     EIGENVALUES --   -11.23851  -0.97131  -0.64197  -0.57076  -0.57074
   1 1   C  1S          0.99553  -0.19728   0.02823   0.00001   0.00000
   2        2S          0.02935   0.38278  -0.04230  -0.00001  -0.00001
   3        2PX         0.00023   0.02106   0.30108  -0.00021  -0.00003
   4        2PY         0.00000   0.00001   0.00006   0.44579   0.00679
   5        2PZ         0.00000   0.00001   0.00002  -0.00679   0.44579
   6        3S         -0.01397   0.38117  -0.06385  -0.00003  -0.00001
   7        3PX        -0.00077   0.00533   0.14566  -0.00011  -0.00001
   8        3PY         0.00000   0.00001   0.00004   0.21766   0.00332
   9        3PZ         0.00000   0.00000   0.00001  -0.00331   0.21766
  10        4XX        -0.00173   0.00629   0.02300   0.00004   0.00000
  11        4YY        -0.00212  -0.00348  -0.00913   0.00039  -0.02172
  12        4ZZ        -0.00212  -0.00348  -0.00913  -0.00042   0.02172
  13        4XY         0.00000   0.00001   0.00004  -0.01214  -0.00016
  14        4XZ         0.00000   0.00000   0.00000   0.00021  -0.01214
  15        4YZ         0.00000   0.00000   0.00001  -0.02508  -0.00049
  16 2   H  1S          0.00002   0.13428  -0.07548  -0.00457   0.27371
  17        2S          0.00242   0.03501  -0.05280  -0.00370   0.22151
  18        3PX        -0.00002   0.00343   0.00362  -0.00008   0.00444
  19        3PY         0.00000   0.00002  -0.00001   0.00659   0.00013
  20        3PZ         0.00018  -0.01267   0.00564   0.00021  -0.01168
  21 3   H  1S          0.00002   0.13428  -0.07538  -0.23482  -0.14078
  22        2S          0.00242   0.03501  -0.05272  -0.19002  -0.11393
  23        3PX        -0.00002   0.00342   0.00363  -0.00380  -0.00228
  24        3PY        -0.00015   0.01097  -0.00487  -0.00698  -0.00803
  25        3PZ        -0.00009   0.00635  -0.00282  -0.00795   0.00188
  26 4   H  1S          0.00002   0.13428  -0.07559   0.23927  -0.13293
  27        2S          0.00242   0.03501  -0.05287   0.19363  -0.10758
  28        3PX        -0.00002   0.00344   0.00362   0.00389  -0.00216
  29        3PY         0.00015  -0.01098   0.00489  -0.00725   0.00779
  30        3PZ        -0.00009   0.00632  -0.00282   0.00787   0.00216
  31 5   H  1S         -0.00003   0.10390   0.24510   0.00012   0.00001
  32        2S          0.00421   0.02666   0.16104   0.00014   0.00001
  33        3PX         0.00049  -0.01081   0.00281  -0.00001   0.00000
  34        3PY         0.00000  -0.00001  -0.00003   0.00538   0.00008
  35        3PZ         0.00000   0.00000   0.00000  -0.00008   0.00538
  36 6   H  1S         -0.00037   0.04521   0.27136   0.00010   0.00000
  37        2S         -0.00141   0.02373   0.27294   0.00009  -0.00001
  38        3PX         0.00027  -0.00418  -0.01120   0.00000   0.00000
  39        3PY         0.00000   0.00001   0.00002   0.00090   0.00001
  40        3PZ         0.00000   0.00000   0.00000  -0.00001   0.00090
                           6         7         8         9        10
                        (A)--O    (A)--V    (A)--V    (A)--V    (A)--V
     EIGENVALUES --    -0.36004   0.25844   0.31532   0.31532   0.36721
   1 1   C  1S          0.04609  -0.14334   0.00000   0.00002   0.05808
   2        2S         -0.10113   0.10141   0.00001   0.00000  -0.03905
   3        2PX        -0.44600  -0.13050  -0.00009  -0.00041  -0.16866
   4        2PY        -0.00032  -0.00012   0.09998   0.28934  -0.00064
   5        2PZ        -0.00002  -0.00001  -0.28934   0.09998  -0.00010
   6        3S         -0.26543   2.59654  -0.00003  -0.00032  -1.09687
   7        3PX        -0.35776  -0.43514  -0.00047  -0.00216  -1.38308
   8        3PY        -0.00030  -0.00058   0.49293   1.42655  -0.00194
   9        3PZ        -0.00002   0.00000  -1.42646   0.49289  -0.00034
  10        4XX        -0.01524  -0.00337   0.00000   0.00001   0.04295
  11        4YY         0.00890  -0.01442  -0.00762   0.00261  -0.00820
  12        4ZZ         0.00890  -0.01442   0.00762  -0.00260  -0.00820
  13        4XY        -0.00004   0.00000   0.00281   0.00810   0.00010
  14        4XZ         0.00000   0.00000  -0.00811   0.00279   0.00001
  15        4YZ        -0.00001   0.00000   0.00300   0.00880   0.00001
  16 2   H  1S          0.04530  -0.01089   0.06944  -0.02392  -0.05878
  17        2S          0.07592  -1.20484   1.81978  -0.62635  -0.15217
  18        3PX        -0.00751  -0.00423  -0.00092   0.00031  -0.00455
  19        3PY         0.00000   0.00000   0.00244   0.00706  -0.00002
  20        3PZ        -0.00314   0.00130  -0.00753   0.00260   0.00070
  21 3   H  1S          0.04524  -0.01093  -0.01404   0.07205  -0.05857
  22        2S          0.07585  -1.20505  -0.36769   1.88889  -0.15374
  23        3PX        -0.00751  -0.00423   0.00018  -0.00096  -0.00456
  24        3PY         0.00271  -0.00113   0.00236   0.00748  -0.00061
  25        3PZ         0.00157  -0.00065  -0.00711   0.00268  -0.00035
  26 4   H  1S          0.04535  -0.01087  -0.05542  -0.04821  -0.05890
  27        2S          0.07597  -1.20470  -1.45219  -1.26327  -0.15151
  28        3PX        -0.00750  -0.00424   0.00073   0.00063  -0.00454
  29        3PY        -0.00273   0.00112   0.00277   0.00735   0.00060
  30        3PZ         0.00157  -0.00065  -0.00725   0.00228  -0.00036
  31 5   H  1S         -0.03628   0.02420   0.00000   0.00009   0.25692
  32        2S         -0.06605  -0.37520   0.00023   0.00168   3.17835
  33        3PX         0.03072   0.00113   0.00000   0.00000  -0.00004
  34        3PY        -0.00001   0.00000   0.00212   0.00612  -0.00001
  35        3PZ         0.00000   0.00000  -0.00612   0.00211   0.00000
  36 6   H  1S          0.30468   0.03969  -0.00001  -0.00002   0.06351
  37        2S          0.59604   0.22639  -0.00006  -0.00074  -1.94899
  38        3PX        -0.00068  -0.00202   0.00000   0.00001  -0.01630
  39        3PY         0.00001   0.00000   0.00220   0.00635   0.00008
  40        3PZ         0.00000   0.00000  -0.00635   0.00219   0.00001
                          11        12        13        14        15
                        (A)--V    (A)--V    (A)--V    (A)--V    (A)--V
     EIGENVALUES --     0.71095   0.71095   0.74949   0.90708   1.13272
   1 1   C  1S          0.00000  -0.00001   0.01718   0.02567   0.00002
   2        2S          0.00006   0.00033  -0.04482   0.17518  -0.00003
   3        2PX        -0.00006  -0.00020  -0.93538   0.16800   0.00012
   4        2PY         0.05344  -0.71601   0.00000   0.00004  -0.16591
   5        2PZ        -0.71602  -0.05344   0.00007   0.00001   0.77841
   6        3S         -0.00008  -0.00049  -0.20826  -0.39301  -0.00001
   7        3PX         0.00016   0.00036   1.36140   0.32873  -0.00018
   8        3PY        -0.10598   1.42006  -0.00064   0.00080   0.26964
   9        3PZ         1.41991   0.10599  -0.00019   0.00002  -1.26511
  10        4XX        -0.00001  -0.00022  -0.07195  -0.00961   0.00003
  11        4YY         0.05611   0.00413   0.03196   0.05934   0.20428
  12        4ZZ        -0.05608  -0.00385   0.03198   0.05931  -0.20429
  13        4XY        -0.00297   0.03904  -0.00014  -0.00003  -0.03156
  14        4XZ         0.03906   0.00286  -0.00002   0.00000   0.14712
  15        4YZ        -0.00454   0.06478  -0.00009   0.00013  -0.04917
  16 2   H  1S         -0.49123  -0.03571   0.18796   0.21859  -0.75139
  17        2S         -0.18760  -0.01372   0.07994   0.13106   1.57377
  18        3PX        -0.00612  -0.00043   0.00460   0.00412   0.05503
  19        3PY        -0.00137   0.01792  -0.00002   0.00003  -0.01286
  20        3PZ         0.03979   0.00294  -0.00899   0.02334  -0.11750
  21 3   H  1S          0.21449   0.44376   0.18735   0.21901   0.23802
  22        2S          0.08189   0.16953   0.07954   0.13099  -0.49834
  23        3PX         0.00267   0.00552   0.00458   0.00411  -0.01737
  24        3PY         0.00692   0.03502   0.00773  -0.02019  -0.06227
  25        3PZ         0.02271   0.01123   0.00449  -0.01172   0.03326
  26 4   H  1S          0.27686  -0.40715   0.18832   0.21828   0.51363
  27        2S          0.10571  -0.15568   0.08017   0.13102  -1.07555
  28        3PX         0.00346  -0.00508   0.00462   0.00414  -0.03768
  29        3PY        -0.01201   0.03364  -0.00782   0.02024   0.09297
  30        3PZ         0.02407  -0.00770   0.00448  -0.01161   0.00060
  31 5   H  1S         -0.00005  -0.00100  -0.17342   0.38735   0.00010
  32        2S         -0.00011  -0.00035  -0.04847  -0.73774  -0.00010
  33        3PX         0.00001   0.00008   0.09832   0.09330  -0.00001
  34        3PY        -0.00229   0.03062   0.00003  -0.00016  -0.00725
  35        3PZ         0.03062   0.00228   0.00000  -0.00003   0.03405
  36 6   H  1S         -0.00001  -0.00031   0.03624   1.02312  -0.00005
  37        2S          0.00007   0.00104  -0.32943  -0.72692   0.00010
  38        3PX         0.00001   0.00017  -0.00613  -0.01149  -0.00001
  39        3PY        -0.00210   0.02811  -0.00006   0.00000   0.00337
  40        3PZ         0.02810   0.00210  -0.00001   0.00000  -0.01573
                          16        17        18        19        20
                        (A)--V    (A)--V    (A)--V    (A)--V    (A)--V
     EIGENVALUES --     1.13274   1.18026   1.20490   1.42571   1.61195
   1 1   C  1S          0.00005   0.04688  -0.03441  -0.13113  -0.00015
   2        2S         -0.00010  -1.27121   0.19816  -1.87787  -0.00230
   3        2PX         0.00091   0.35935   0.30745  -0.24351  -0.00046
   4        2PY        -0.77842   0.00075   0.00071  -0.00086   0.02552
   5        2PZ        -0.16591   0.00003   0.00014  -0.00011   0.01915
   6        3S         -0.00006   2.56336  -0.62919   5.39902   0.00693
   7        3PX        -0.00138  -0.73596  -1.00781   0.96209   0.00214
   8        3PY         1.26514  -0.00149  -0.00228   0.00244  -0.03063
   9        3PZ         0.26965  -0.00008  -0.00036   0.00048  -0.02299
  10        4XX         0.00017  -0.18905  -0.20259  -0.04303  -0.00063
  11        4YY        -0.04285   0.06004   0.06325  -0.14036  -0.17890
  12        4ZZ         0.04277   0.06004   0.06327  -0.14050   0.17934
  13        4XY        -0.14702  -0.00017  -0.00007  -0.00043   0.46453
  14        4XZ        -0.03113  -0.00002   0.00001  -0.00007   0.34870
  15        4YZ        -0.23596   0.00006  -0.00025   0.00038  -0.27812
  16 2   H  1S          0.15949   0.51609  -0.08110  -0.46008  -0.00859
  17        2S         -0.33349  -1.07519  -0.22617  -0.65563   0.01866
  18        3PX        -0.01159  -0.00427   0.04946   0.00811   0.15042
  19        3PY        -0.06176  -0.00014  -0.00012   0.00032  -0.17914
  20        3PZ         0.02485   0.09686  -0.00589  -0.00904   0.04024
  21 3   H  1S         -0.72999   0.51629  -0.08135  -0.46001   0.01277
  22        2S          1.52935  -1.07593  -0.22678  -0.65451  -0.03231
  23        3PX         0.05338  -0.00421   0.04936   0.00828  -0.24906
  24        3PY         0.08904  -0.08386   0.00508   0.00790   0.07111
  25        3PZ         0.07412  -0.04856   0.00301   0.00446   0.01064
  26 4   H  1S          0.57161   0.51583  -0.08077  -0.45997  -0.00583
  27        2S         -1.19657  -1.07452  -0.22604  -0.65628   0.01209
  28        3PX        -0.04187  -0.00432   0.04950   0.00803   0.09884
  29        3PY         0.05638   0.08390  -0.00511  -0.00770  -0.07950
  30        3PZ        -0.08113  -0.04830   0.00286   0.00468  -0.19160
  31 5   H  1S          0.00017  -0.11331  -1.18437   0.09202   0.00087
  32        2S          0.00009   0.49086   3.07324  -2.92137  -0.00626
  33        3PX         0.00005   0.01365   0.08043   0.09597  -0.00002
  34        3PY        -0.03405   0.00016   0.00006  -0.00075   0.20820
  35        3PZ        -0.00726   0.00002   0.00002  -0.00010   0.15627
  36 6   H  1S          0.00007  -0.24003   0.48880   0.38965   0.00047
  37        2S         -0.00004   0.00818  -1.61699   0.75719   0.00225
  38        3PX         0.00002  -0.01484   0.14015   0.05447   0.00022
  39        3PY         0.01572   0.00007   0.00002  -0.00077   0.07776
  40        3PZ         0.00333   0.00001   0.00000  -0.00011   0.05837
                          21        22        23        24        25
                        (A)--V    (A)--V    (A)--V    (A)--V    (A)--V
     EIGENVALUES --     1.61197   2.05068   2.05069   2.12399   2.32811
   1 1   C  1S          0.00008  -0.00024   0.00009   0.04737   0.00000
   2        2S          0.00119  -0.00191   0.00081  -0.07676   0.00000
   3        2PX         0.00024  -0.00005   0.00006  -0.15644   0.00000
   4        2PY        -0.01916   0.07459  -0.04298   0.00015  -0.00065
   5        2PZ         0.02553   0.04293   0.07462   0.00004  -0.00001
   6        3S         -0.00358   0.00705  -0.00282  -0.47765   0.00000
   7        3PX        -0.00112   0.00137  -0.00065   0.32012   0.00000
   8        3PY         0.02301  -0.23593   0.13596  -0.00042   0.00426
   9        3PZ        -0.03066  -0.13578  -0.23603  -0.00013   0.00007
  10        4XX         0.00037  -0.00128   0.00035   0.70386   0.00000
  11        4YY        -0.24156   0.01274   0.02164  -0.24866  -0.00004
  12        4ZZ         0.24129  -0.01173  -0.02191  -0.24863   0.00004
  13        4XY        -0.34823  -0.14616   0.08408   0.00039  -0.00209
  14        4XZ         0.46415  -0.08419  -0.14610  -0.00003  -0.00003
  15        4YZ         0.20763   0.02493  -0.01444  -0.00013  -0.00355
  16 2   H  1S         -0.01046  -0.00807  -0.01160   0.25147  -0.00006
  17        2S          0.02592   0.08807   0.15452   0.00804   0.00000
  18        3PX         0.20067  -0.12505  -0.21910  -0.16538  -0.00054
  19        3PY         0.13424  -0.03507   0.02002  -0.00054   0.57884
  20        3PZ         0.05428  -0.04282  -0.07429   0.05269   0.00073
  21 3   H  1S         -0.00130   0.01272   0.00046   0.25171   0.00326
  22        2S          0.00407  -0.17824  -0.00023   0.00743   0.00013
  23        3PX         0.02967   0.25301   0.00042  -0.16429   0.00106
  24        3PY         0.10448  -0.07393   0.02003  -0.04620  -0.29354
  25        3PZ        -0.19637  -0.04279  -0.03507  -0.02656   0.50273
  26 4   H  1S          0.01262  -0.00813   0.01242   0.25132  -0.00321
  27        2S         -0.02920   0.08894  -0.15378   0.00835  -0.00012
  28        3PX        -0.23042  -0.12614   0.21802  -0.16599  -0.00051
  29        3PY        -0.09799  -0.05490   0.05434   0.04518  -0.29220
  30        3PZ        -0.04543  -0.00875  -0.05453  -0.02635  -0.50359
  31 5   H  1S         -0.00047   0.00164  -0.00058  -0.31725   0.00000
  32        2S          0.00327  -0.00653   0.00258   0.49364  -0.00001
  33        3PX         0.00001   0.00092  -0.00031  -0.28339   0.00000
  34        3PY        -0.15622   0.44222  -0.25464   0.00118  -0.00066
  35        3PZ         0.20820   0.25461   0.44223   0.00026  -0.00001
  36 6   H  1S         -0.00024  -0.00026   0.00002   0.34743   0.00000
  37        2S         -0.00119   0.00273  -0.00101  -0.48815   0.00001
  38        3PX        -0.00012   0.00041  -0.00024   0.36111   0.00000
  39        3PY        -0.05834   0.59286  -0.34135   0.00107  -0.00111
  40        3PZ         0.07776   0.34136   0.59286   0.00032  -0.00002
                          26        27        28        29        30
                        (A)--V    (A)--V    (A)--V    (A)--V    (A)--V
     EIGENVALUES --     2.33314   2.33317   2.55473   2.55475   2.85058
   1 1   C  1S         -0.00002  -0.00001   0.00000   0.00001   0.05089
   2        2S          0.00003  -0.00005   0.00011   0.00043   0.15781
   3        2PX         0.00014   0.00004   0.00002   0.00002  -0.14904
   4        2PY        -0.09644  -0.02001   0.03544   0.07695  -0.00024
   5        2PZ         0.02002  -0.09644  -0.07692   0.03549  -0.00002
   6        3S          0.00034   0.00025  -0.00016  -0.00097  -1.05708
   7        3PX        -0.00069  -0.00017  -0.00013  -0.00069  -0.94887
   8        3PY         0.62631   0.12997   0.01102   0.02376  -0.00267
   9        3PZ        -0.12997   0.62620  -0.02385   0.01093  -0.00028
  10        4XX        -0.00005  -0.00003  -0.00044  -0.00138   0.01938
  11        4YY         0.09471  -0.44870  -0.14719   0.06811   0.01749
  12        4ZZ        -0.09480   0.44870   0.14754  -0.06702   0.01749
  13        4XY        -0.30509  -0.06282   0.15675   0.33967  -0.00135
  14        4XZ         0.06378  -0.30495  -0.33983   0.15649  -0.00018
  15        4YZ        -0.51804  -0.10994   0.07739   0.17051  -0.00050
  16 2   H  1S          0.11406  -0.54673  -0.16997   0.07797   0.04069
  17        2S          0.00410  -0.01945   0.15656  -0.07169   0.00329
  18        3PX         0.02940  -0.13867   0.51321  -0.23544   0.55687
  19        3PY        -0.33581  -0.06986  -0.07709  -0.16898   0.00161
  20        3PZ         0.07368  -0.35512   0.00731  -0.00374   0.10768
  21 3   H  1S          0.41618   0.37219   0.01733  -0.18631   0.04079
  22        2S          0.01492   0.01323  -0.01593   0.17158   0.00198
  23        3PX         0.10614   0.09464  -0.05235   0.56239   0.55551
  24        3PY        -0.34519  -0.08197  -0.09206  -0.01505  -0.09230
  25        3PZ         0.05690  -0.34065   0.16046   0.01097  -0.05435
  26 4   H  1S         -0.53070   0.17438   0.15254   0.10804   0.04059
  27        2S         -0.01893   0.00618  -0.14049  -0.09940   0.00421
  28        3PX        -0.13428   0.04438  -0.46071  -0.32628   0.55775
  29        3PY        -0.34969  -0.06208   0.04735  -0.08007   0.09419
  30        3PZ         0.08333  -0.33500   0.09641  -0.12897  -0.05309
  31 5   H  1S          0.00046   0.00015   0.00021   0.00071   0.34738
  32        2S         -0.00086  -0.00037  -0.00004   0.00050   1.31619
  33        3PX         0.00010   0.00004  -0.00005  -0.00035  -0.26675
  34        3PY        -0.09430  -0.01956   0.16473   0.35734   0.00139
  35        3PZ         0.01957  -0.09427  -0.35730   0.16472  -0.00001
  36 6   H  1S         -0.00029  -0.00009   0.00005   0.00024  -0.01614
  37        2S          0.00075   0.00028   0.00000  -0.00031  -0.54427
  38        3PX        -0.00027  -0.00009  -0.00010  -0.00015   0.44043
  39        3PY        -0.16459  -0.03421  -0.23082  -0.50061  -0.00195
  40        3PZ         0.03410  -0.16460   0.50061  -0.23073  -0.00013
                          31        32        33        34        35
                        (A)--V    (A)--V    (A)--V    (A)--V    (A)--V
     EIGENVALUES --     2.93125   2.96587   2.96594   3.18960   3.18963
   1 1   C  1S         -0.05116  -0.00037  -0.00092  -0.00004   0.00021
   2        2S          0.07154   0.00050   0.00090   0.00013  -0.00031
   3        2PX         0.00108   0.00021   0.00066  -0.00003  -0.00003
   4        2PY         0.00138  -0.02891  -0.11533   0.03957  -0.11984
   5        2PZ         0.00024  -0.11531   0.02897  -0.11987  -0.03962
   6        3S          0.84309   0.00587   0.01501   0.00055  -0.00311
   7        3PX         0.10482   0.00162   0.00471   0.00012  -0.00097
   8        3PY         0.00808  -0.13669  -0.54465   0.06216  -0.18807
   9        3PZ         0.00130  -0.54465   0.13669  -0.18807  -0.06210
  10        4XX         0.68352   0.00387   0.00915   0.00036  -0.00173
  11        4YY        -0.35157  -0.25618   0.05965  -0.43048  -0.13867
  12        4ZZ        -0.35261   0.25204  -0.06959   0.43009   0.14073
  13        4XY         0.00579  -0.06371  -0.25509  -0.20415   0.61950
  14        4XZ         0.00081  -0.25498   0.06430   0.61917   0.20506
  15        4YZ         0.00363  -0.07512  -0.29330   0.16246  -0.49647
  16 2   H  1S          0.02541  -0.04050   0.01028   0.01054   0.00368
  17        2S         -0.19030   0.41833  -0.10846   0.17126   0.05675
  18        3PX         0.23314   0.24921  -0.06176  -0.38833  -0.12807
  19        3PY        -0.00693   0.12864   0.50822  -0.19058   0.57929
  20        3PZ         0.25939  -0.07850   0.02421  -0.23578  -0.07727
  21 3   H  1S          0.02471   0.02921   0.03005  -0.00232  -0.01073
  22        2S         -0.18362  -0.30249  -0.31293  -0.03697  -0.17615
  23        3PX         0.23836  -0.17758  -0.18253   0.08381   0.40066
  24        3PY        -0.22477  -0.23973   0.12873  -0.34311  -0.14684
  25        3PZ        -0.12745   0.29591  -0.34747   0.49109  -0.22930
  26 4   H  1S          0.02581   0.01146  -0.04015  -0.00833   0.00760
  27        2S         -0.19410  -0.11914   0.41359  -0.13460   0.12061
  28        3PX         0.23006  -0.06946   0.24811   0.30450  -0.27246
  29        3PY         0.22322   0.27239   0.00547   0.36339   0.08285
  30        3PZ        -0.13336   0.42522   0.16206   0.25993   0.47673
  31 5   H  1S         -0.53146  -0.00315  -0.00772  -0.00016   0.00066
  32        2S         -0.55206  -0.00448  -0.01179  -0.00041   0.00282
  33        3PX         0.23616   0.00167   0.00415   0.00016  -0.00098
  34        3PY        -0.00945   0.17351   0.69151   0.10601  -0.32102
  35        3PZ        -0.00145   0.69154  -0.17358  -0.32106  -0.10611
  36 6   H  1S         -0.00338   0.00013   0.00035   0.00002  -0.00004
  37        2S          0.41066   0.00274   0.00693   0.00021  -0.00130
  38        3PX        -0.63191  -0.00393  -0.00961  -0.00021   0.00098
  39        3PY         0.00668  -0.10567  -0.42100  -0.06340   0.19194
  40        3PZ         0.00102  -0.42108   0.10566   0.19198   0.06343
                          36        37        38        39        40
                        (A)--V    (A)--V    (A)--V    (A)--V    (A)--V
     EIGENVALUES --     3.56816   3.79370   3.79373   4.27538   4.93935
   1 1   C  1S         -0.12185  -0.00001   0.00002  -0.16218  -0.45574
   2        2S          1.01623   0.00022  -0.00022   0.88546   2.63362
   3        2PX        -0.33692   0.00080  -0.00018   0.40397  -0.02336
   4        2PY        -0.00016  -0.95852   0.18811   0.00035  -0.00004
   5        2PZ         0.00010   0.18810   0.95846   0.00004  -0.00002
   6        3S          0.75632  -0.00030   0.00002   0.49814   2.35621
   7        3PX        -0.28805   0.00020  -0.00004   0.20523   0.19026
   8        3PY        -0.00015  -0.49773   0.09770   0.00031   0.00032
   9        3PZ         0.00008   0.09766   0.49771   0.00005   0.00010
  10        4XX        -0.70551  -0.00100   0.00036   0.04632  -1.93991
  11        4YY         0.19526  -0.17743  -0.88996  -0.96689  -1.93823
  12        4ZZ         0.19529   0.17832   0.88972  -0.96680  -1.93815
  13        4XY        -0.00054   0.54412  -0.10581   0.00151  -0.00019
  14        4XZ        -0.00011  -0.10770  -0.54380   0.00021  -0.00005
  15        4YZ        -0.00024   1.02727  -0.20638  -0.00001  -0.00005
  16 2   H  1S         -0.35523  -0.15890  -0.80391   0.24268   0.21457
  17        2S         -0.33420  -0.09315  -0.47122  -0.04546  -0.38143
  18        3PX        -0.22312  -0.06515  -0.33004   0.07985   0.06607
  19        3PY        -0.00100  -0.07825   0.01367   0.00043   0.00037
  20        3PZ         0.69845   0.21294   1.07760  -0.25369  -0.26306
  21 3   H  1S         -0.35509  -0.61682   0.53963   0.24263   0.21470
  22        2S         -0.33398  -0.36159   0.31633  -0.04537  -0.38132
  23        3PX        -0.22220  -0.25245   0.22095   0.07987   0.06580
  24        3PY        -0.60441  -0.74202   0.59623   0.21951   0.22779
  25        3PZ        -0.35001  -0.36909   0.41425   0.12709   0.13190
  26 4   H  1S         -0.35519   0.77568   0.26442   0.24274   0.21455
  27        2S         -0.33416   0.45467   0.15499  -0.04552  -0.38145
  28        3PX        -0.22377   0.31913   0.10878   0.07996   0.06627
  29        3PY         0.60508  -0.91366  -0.26961  -0.21986  -0.22794
  30        3PZ        -0.34834   0.49642   0.24200   0.12662   0.13120
  31 5   H  1S          0.25473  -0.00001  -0.00002   0.30290  -0.08203
  32        2S          0.25483   0.00060  -0.00019  -0.19583  -0.87199
  33        3PX         0.13697  -0.00014   0.00003   1.30112  -0.66646
  34        3PY        -0.00084   0.04242  -0.00837  -0.00079   0.00032
  35        3PZ        -0.00014  -0.00829  -0.04247  -0.00012   0.00005
  36 6   H  1S         -0.12861   0.00003   0.00000  -0.55212   0.31891
  37        2S         -0.14947  -0.00033   0.00011  -0.04585   0.31208
  38        3PX         0.33159   0.00006  -0.00004   0.92898  -0.42616
  39        3PY        -0.00015   0.00854  -0.00165  -0.00119   0.00082
  40        3PZ        -0.00002  -0.00170  -0.00851  -0.00018   0.00012
     Beta Molecular Orbital Coefficients.
                           1         2         3         4         5
                        (A)--O    (A)--O    (A)--O    (A)--O    (A)--O
     EIGENVALUES --   -11.22015  -0.91418  -0.55942  -0.55940  -0.54348
   1 1   C  1S          0.99606  -0.18772  -0.00004   0.00001   0.02363
   2        2S          0.02650   0.34723   0.00010  -0.00002  -0.05420
   3        2PX        -0.00019  -0.05311  -0.00069   0.00003   0.23394
   4        2PY         0.00000  -0.00006   0.42311  -0.01736   0.00082
   5        2PZ         0.00000   0.00000   0.01736   0.42311  -0.00003
   6        3S         -0.01424   0.32852   0.00016  -0.00003  -0.12144
   7        3PX        -0.00091  -0.00317  -0.00029   0.00001   0.07971
   8        3PY         0.00000  -0.00002   0.20207  -0.00830   0.00030
   9        3PZ         0.00000   0.00000   0.00829   0.20207  -0.00003
  10        4XX        -0.00210  -0.01369  -0.00001   0.00001   0.02400
  11        4YY        -0.00090   0.00622  -0.00083  -0.02205  -0.00856
  12        4ZZ        -0.00090   0.00622   0.00083   0.02204  -0.00857
  13        4XY         0.00000  -0.00002  -0.01879   0.00079   0.00000
  14        4XZ         0.00000   0.00000  -0.00075  -0.01879   0.00001
  15        4YZ         0.00000   0.00000  -0.02546   0.00093  -0.00004
  16 2   H  1S         -0.00006   0.15185   0.01143   0.28521  -0.07389
  17        2S          0.00242   0.05858   0.00985   0.24583  -0.06305
  18        3PX        -0.00005   0.00366   0.00023   0.00614   0.00297
  19        3PY         0.00000   0.00002   0.00684  -0.00025   0.00001
  20        3PZ         0.00023  -0.01294  -0.00042  -0.01072   0.00501
  21 3   H  1S         -0.00007   0.15186  -0.25257  -0.13282  -0.07421
  22        2S          0.00242   0.05858  -0.21768  -0.11448  -0.06338
  23        3PX        -0.00005   0.00364  -0.00543  -0.00285   0.00297
  24        3PY        -0.00020   0.01120  -0.00662  -0.00736  -0.00434
  25        3PZ        -0.00012   0.00648  -0.00751   0.00275  -0.00252
  26 4   H  1S         -0.00006   0.15185   0.24145  -0.15243  -0.07347
  27        2S          0.00242   0.05859   0.20810  -0.13138  -0.06265
  28        3PX        -0.00005   0.00367   0.00520  -0.00329   0.00298
  29        3PY         0.00020  -0.01121  -0.00604   0.00785   0.00433
  30        3PZ        -0.00012   0.00645   0.00770   0.00216  -0.00249
  31 5   H  1S          0.00006   0.10473  -0.00048   0.00006   0.33411
  32        2S          0.00445   0.04567  -0.00061   0.00008   0.46439
  33        3PX         0.00037  -0.00643  -0.00001   0.00000   0.00348
  34        3PY         0.00000  -0.00001   0.00485  -0.00020  -0.00002
  35        3PZ         0.00000   0.00000   0.00020   0.00485  -0.00001
  36 6   H  1S         -0.00028   0.03382  -0.00026   0.00003   0.16904
  37        2S         -0.00143   0.01574  -0.00014   0.00001   0.07608
  38        3PX         0.00023  -0.00534   0.00003   0.00000  -0.01707
  39        3PY         0.00000   0.00001   0.00107  -0.00004   0.00002
  40        3PZ         0.00000   0.00000   0.00004   0.00107   0.00000
                           6         7         8         9        10
                        (A)--V    (A)--V    (A)--V    (A)--V    (A)--V
     EIGENVALUES --     0.10886   0.26873   0.32551   0.32552   0.41623
   1 1   C  1S          0.06723  -0.14147   0.00000   0.00001   0.06021
   2        2S         -0.09237   0.08490   0.00001   0.00003  -0.01335
   3        2PX        -0.31446  -0.15652  -0.00008  -0.00038  -0.12067
   4        2PY        -0.00023  -0.00015   0.08862   0.28497  -0.00067
   5        2PZ        -0.00002  -0.00001  -0.28496   0.08863  -0.00010
   6        3S         -0.51572   2.59165  -0.00002  -0.00015  -1.16104
   7        3PX        -0.44458  -0.49135  -0.00044  -0.00217  -1.50991
   8        3PY        -0.00047  -0.00073   0.45892   1.47565  -0.00166
   9        3PZ        -0.00005  -0.00002  -1.47556   0.45888  -0.00025
  10        4XX         0.00356  -0.01288   0.00000   0.00002   0.03977
  11        4YY        -0.00232  -0.00986  -0.00573   0.00175  -0.00882
  12        4ZZ        -0.00232  -0.00986   0.00573  -0.00175  -0.00882
  13        4XY        -0.00001  -0.00001  -0.00105  -0.00339   0.00012
  14        4XZ         0.00000   0.00000   0.00338  -0.00106   0.00002
  15        4YZ        -0.00001   0.00000   0.00203   0.00661   0.00001
  16 2   H  1S          0.01960  -0.00250   0.05987  -0.01855  -0.05988
  17        2S          0.15904  -1.21023   1.85479  -0.57441  -0.12355
  18        3PX        -0.00970  -0.00498   0.00041  -0.00014  -0.00609
  19        3PY         0.00000   0.00000   0.00259   0.00834  -0.00002
  20        3PZ        -0.00247   0.00071  -0.00780   0.00243   0.00062
  21 3   H  1S          0.01953  -0.00255  -0.01390   0.06109  -0.05956
  22        2S          0.15887  -1.21056  -0.43021   1.89320  -0.12480
  23        3PX        -0.00970  -0.00498  -0.00010   0.00041  -0.00610
  24        3PY         0.00212  -0.00062   0.00270   0.00787  -0.00054
  25        3PZ         0.00123  -0.00036  -0.00828   0.00232  -0.00030
  26 4   H  1S          0.01966  -0.00247  -0.04599  -0.04259  -0.06006
  27        2S          0.15914  -1.20999  -1.42469  -1.31962  -0.12296
  28        3PX        -0.00970  -0.00499  -0.00032  -0.00030  -0.00608
  29        3PY        -0.00215   0.00061   0.00224   0.00801   0.00054
  30        3PZ         0.00123  -0.00035  -0.00813   0.00278  -0.00033
  31 5   H  1S         -0.01928   0.03263   0.00000   0.00006   0.24491
  32        2S         -0.04727  -0.32823   0.00021   0.00133   3.13422
  33        3PX         0.01690   0.00260   0.00000   0.00000  -0.00154
  34        3PY         0.00000   0.00000   0.00190   0.00609   0.00002
  35        3PZ         0.00000   0.00000  -0.00609   0.00189   0.00000
  36 6   H  1S          0.19567   0.04718  -0.00001  -0.00002   0.07305
  37        2S          0.75835   0.26382  -0.00004  -0.00046  -1.96508
  38        3PX        -0.00910  -0.00537   0.00000   0.00001  -0.00136
  39        3PY         0.00002   0.00001   0.00202   0.00646   0.00007
  40        3PZ         0.00000   0.00000  -0.00646   0.00200   0.00001
                          11        12        13        14        15
                        (A)--V    (A)--V    (A)--V    (A)--V    (A)--V
     EIGENVALUES --     0.71470   0.71471   0.83455   0.97604   1.14529
   1 1   C  1S          0.00000  -0.00001   0.03572  -0.04276   0.00000
   2        2S          0.00002   0.00038   0.02391  -0.09642   0.00000
   3        2PX        -0.00005   0.00014  -0.97853  -0.10722  -0.00004
   4        2PY         0.12414  -0.69839  -0.00031   0.00007  -0.02850
   5        2PZ        -0.69839  -0.12413   0.00002  -0.00001   0.81376
   6        3S         -0.00002  -0.00044  -0.59877   0.22631  -0.00003
   7        3PX         0.00014  -0.00004   1.12710  -0.50341   0.00003
   8        3PY        -0.24386   1.37199  -0.00038  -0.00123   0.04496
   9        3PZ         1.37184   0.24384  -0.00015  -0.00006  -1.28402
  10        4XX         0.00001  -0.00019  -0.05960  -0.02343   0.00000
  11        4YY         0.05553   0.00980   0.02264  -0.05427   0.21191
  12        4ZZ        -0.05553  -0.00955   0.02266  -0.05423  -0.21191
  13        4XY        -0.00704   0.03929  -0.00009   0.00002  -0.00455
  14        4XZ         0.03932   0.00693  -0.00001   0.00000   0.12360
  15        4YZ        -0.01110   0.06413  -0.00008  -0.00018  -0.00748
  16 2   H  1S         -0.49788  -0.08758   0.20064  -0.27672  -0.76319
  17        2S         -0.14845  -0.02617   0.10667  -0.13815   1.58759
  18        3PX        -0.00640  -0.00111   0.00311   0.00549   0.05154
  19        3PY        -0.00329   0.01832  -0.00002  -0.00004  -0.00210
  20        3PZ         0.03893   0.00689  -0.01111  -0.03085  -0.12484
  21 3   H  1S          0.17291   0.47534   0.20019  -0.27728   0.35932
  22        2S          0.05153   0.14181   0.10632  -0.13805  -0.74747
  23        3PX         0.00222   0.00610   0.00309   0.00548  -0.02419
  24        3PY         0.00293   0.03535   0.00957   0.02670  -0.08119
  25        3PZ         0.02191   0.01311   0.00556   0.01550   0.02288
  26 4   H  1S          0.32501  -0.38704   0.20090  -0.27632   0.40387
  27        2S          0.09692  -0.11559   0.10686  -0.13808  -0.84011
  28        3PX         0.00419  -0.00498   0.00313   0.00548  -0.02735
  29        3PY        -0.01491   0.03221  -0.00966  -0.02675   0.08625
  30        3PZ         0.02503  -0.00473   0.00553   0.01534   0.01746
  31 5   H  1S          0.00006  -0.00104  -0.23502  -0.65282   0.00002
  32        2S         -0.00008  -0.00039   0.43231   1.41694   0.00001
  33        3PX         0.00000   0.00004   0.10601  -0.08118  -0.00002
  34        3PY        -0.00586   0.03297   0.00007   0.00017  -0.00102
  35        3PZ         0.03297   0.00586   0.00001   0.00003   0.02909
  36 6   H  1S          0.00002  -0.00034   0.07663  -0.86475  -0.00007
  37        2S         -0.00003   0.00136  -0.54383   0.22484   0.00005
  38        3PX        -0.00001   0.00016   0.00366   0.04353  -0.00001
  39        3PY        -0.00452   0.02542  -0.00003  -0.00002   0.00053
  40        3PZ         0.02542   0.00452  -0.00001   0.00000  -0.01452
                          16        17        18        19        20
                        (A)--V    (A)--V    (A)--V    (A)--V    (A)--V
     EIGENVALUES --     1.14531   1.19451   1.24175   1.44992   1.64367
   1 1   C  1S          0.00006   0.04325  -0.03155  -0.13044  -0.00017
   2        2S         -0.00013  -1.18402   0.57894  -1.85875  -0.00240
   3        2PX         0.00095   0.42216   0.31668  -0.26553  -0.00050
   4        2PY        -0.81376   0.00093   0.00056  -0.00091   0.05077
   5        2PZ        -0.02851   0.00007   0.00011  -0.00012   0.03503
   6        3S         -0.00001   2.26789  -1.44533   5.35014   0.00732
   7        3PX        -0.00135  -0.94529  -0.80623   0.95955   0.00222
   8        3PY         1.28405  -0.00202  -0.00167   0.00245  -0.04917
   9        3PZ         0.04499  -0.00017  -0.00028   0.00048  -0.03392
  10        4XX         0.00015  -0.20756  -0.14341  -0.06020  -0.00068
  11        4YY        -0.00669   0.06295   0.07170  -0.14123  -0.16755
  12        4ZZ         0.00665   0.06294   0.07172  -0.14136   0.16798
  13        4XY        -0.12357  -0.00016  -0.00007  -0.00044   0.46450
  14        4XZ        -0.00411  -0.00002   0.00000  -0.00008   0.32062
  15        4YZ        -0.24471   0.00000  -0.00022   0.00039  -0.28343
  16 2   H  1S          0.02611   0.49117  -0.12470  -0.44703  -0.02610
  17        2S         -0.05374  -1.08155   0.06968  -0.65664   0.03711
  18        3PX        -0.00168   0.00592   0.04980   0.01094   0.14654
  19        3PY        -0.06851  -0.00016  -0.00008   0.00034  -0.18878
  20        3PZ         0.00417   0.09562  -0.01930  -0.00958   0.03430
  21 3   H  1S         -0.67340   0.49132  -0.12495  -0.44700   0.04424
  22        2S          1.40140  -1.08245   0.06938  -0.65547  -0.06684
  23        3PX         0.04542   0.00596   0.04970   0.01112  -0.25741
  24        3PY         0.07921  -0.08280   0.01670   0.00837   0.06141
  25        3PZ         0.08312  -0.04794   0.00972   0.00473   0.01478
  26 4   H  1S          0.64849   0.49100  -0.12442  -0.44690  -0.01995
  27        2S         -1.34838  -1.08086   0.06968  -0.65732   0.02803
  28        3PX        -0.04383   0.00588   0.04985   0.01086   0.11114
  29        3PY         0.07381   0.08282  -0.01672  -0.00816  -0.08043
  30        3PZ        -0.08433  -0.04770   0.00956   0.00495  -0.19245
  31 5   H  1S          0.00025  -0.38865  -0.97829   0.05572   0.00082
  32        2S         -0.00014   1.21862   2.70413  -2.83871  -0.00645
  33        3PX         0.00004   0.02481   0.08963   0.11703   0.00003
  34        3PY        -0.02910   0.00017  -0.00005  -0.00080   0.22770
  35        3PZ        -0.00102   0.00002   0.00000  -0.00011   0.15714
  36 6   H  1S          0.00004  -0.13042   0.76684   0.45665   0.00057
  37        2S          0.00011  -0.37247  -1.63906   0.68466   0.00230
  38        3PX         0.00002   0.02008   0.12309   0.04923   0.00022
  39        3PY         0.01452   0.00006   0.00001  -0.00070   0.08018
  40        3PZ         0.00049   0.00001   0.00000  -0.00010   0.05534
                          21        22        23        24        25
                        (A)--V    (A)--V    (A)--V    (A)--V    (A)--V
     EIGENVALUES --     1.64368   2.08820   2.08821   2.17570   2.32551
   1 1   C  1S          0.00008  -0.00024   0.00004   0.04037   0.00000
   2        2S          0.00112  -0.00197   0.00043  -0.06386   0.00000
   3        2PX         0.00023  -0.00006   0.00005  -0.14684   0.00000
   4        2PY        -0.03504   0.07686  -0.02664   0.00011  -0.00020
   5        2PZ         0.05078   0.02658   0.07688   0.00003   0.00000
   6        3S         -0.00342   0.00711  -0.00141  -0.41524   0.00000
   7        3PX        -0.00105   0.00136  -0.00036   0.35039   0.00000
   8        3PY         0.03395  -0.24944   0.08646  -0.00017   0.00127
   9        3PZ        -0.04919  -0.08627  -0.24951  -0.00009   0.00001
  10        4XX         0.00036  -0.00128   0.00011   0.70269   0.00000
  11        4YY        -0.24611   0.00817   0.02294  -0.24844   0.00000
  12        4ZZ         0.24586  -0.00719  -0.02302  -0.24839   0.00000
  13        4XY        -0.32014  -0.15918   0.05504   0.00042  -0.00061
  14        4XZ         0.46414  -0.05517  -0.15914  -0.00002   0.00000
  15        4YZ         0.19451   0.02638  -0.00922  -0.00023  -0.00102
  16 2   H  1S         -0.03678  -0.00431  -0.00897   0.23136  -0.00001
  17        2S          0.05506   0.05476   0.16048   0.01369   0.00000
  18        3PX         0.21259  -0.09414  -0.27507  -0.17780  -0.00052
  19        3PY         0.13008  -0.04773   0.01633  -0.00065   0.58045
  20        3PZ         0.05040  -0.03157  -0.09109   0.05209   0.00077
  21 3   H  1S         -0.00327   0.00840   0.00204   0.23168   0.00093
  22        2S          0.00552  -0.16690  -0.03216   0.01318   0.00007
  23        3PX         0.02031   0.28620   0.05530  -0.17661   0.00047
  24        3PY         0.11037  -0.08638   0.00897  -0.04578  -0.29186
  25        3PZ        -0.20019  -0.03902  -0.05206  -0.02627   0.50283
  26 4   H  1S          0.04090  -0.00750   0.00750   0.23116  -0.00092
  27        2S         -0.05980   0.11082  -0.12805   0.01395  -0.00007
  28        3PX        -0.23301  -0.19007   0.21944  -0.17847   0.00006
  29        3PY        -0.09706  -0.07401   0.04676   0.04459  -0.29053
  30        3PZ        -0.05801  -0.00144  -0.06493  -0.02609  -0.50361
  31 5   H  1S         -0.00040   0.00161  -0.00025  -0.30661   0.00000
  32        2S          0.00305  -0.00650   0.00127   0.39696   0.00000
  33        3PX        -0.00001   0.00094  -0.00013  -0.28594   0.00000
  34        3PY        -0.15709   0.52690  -0.18243   0.00120  -0.00027
  35        3PZ         0.22771   0.18240   0.52691   0.00026   0.00000
  36 6   H  1S         -0.00026  -0.00020  -0.00004   0.37616   0.00000
  37        2S         -0.00110   0.00269  -0.00047  -0.45318   0.00000
  38        3PX        -0.00010   0.00046  -0.00015   0.34689   0.00000
  39        3PY        -0.05531   0.58411  -0.20222   0.00082  -0.00033
  40        3PZ         0.08018   0.20223   0.58412   0.00025   0.00000
                          26        27        28        29        30
                        (A)--V    (A)--V    (A)--V    (A)--V    (A)--V
     EIGENVALUES --     2.34274   2.34277   2.58693   2.58694   2.86220
   1 1   C  1S         -0.00002  -0.00001   0.00000  -0.00001   0.04267
   2        2S          0.00006  -0.00004   0.00002  -0.00048   0.15715
   3        2PX         0.00016   0.00004   0.00002  -0.00003  -0.15602
   4        2PY        -0.10842  -0.01939   0.01820  -0.09200  -0.00023
   5        2PZ         0.01939  -0.10842  -0.09198  -0.01827  -0.00001
   6        3S          0.00030   0.00023   0.00005   0.00103  -0.90003
   7        3PX        -0.00080  -0.00018   0.00003   0.00074  -0.90571
   8        3PY         0.64661   0.11564   0.01124  -0.05641  -0.00211
   9        3PZ        -0.11564   0.64648  -0.05648  -0.01114  -0.00019
  10        4XX        -0.00014  -0.00007  -0.00011   0.00145   0.13876
  11        4YY         0.08094  -0.44371  -0.15764  -0.03148  -0.04600
  12        4ZZ        -0.08098   0.44373   0.15773   0.03038  -0.04605
  13        4XY        -0.30185  -0.05350   0.07621  -0.38364  -0.00074
  14        4XZ         0.05446  -0.30173  -0.38374  -0.07591  -0.00011
  15        4YZ        -0.51231  -0.09401   0.03500  -0.18228  -0.00035
  16 2   H  1S          0.09687  -0.53839  -0.17518  -0.03440   0.04691
  17        2S          0.00613  -0.03379   0.18616   0.03644  -0.02634
  18        3PX         0.02554  -0.13913   0.53843   0.10571   0.58395
  19        3PY        -0.33725  -0.06043  -0.03758   0.19344   0.00122
  20        3PZ         0.06428  -0.35949  -0.00292  -0.00020   0.14379
  21 3   H  1S          0.41755   0.35314   0.05772   0.16902   0.04696
  22        2S          0.02633   0.02216  -0.06130  -0.17963  -0.02724
[...]
 Vib (Bot)  1    0.269966D+00         -0.568692         -1.309461
 Vib (Bot)  2    0.269964D+00         -0.568694         -1.309467
 Vib (V=0)       0.115448D+01          0.062387          0.143652
 Vib (V=0)  1    0.106823D+01          0.028663          0.066000
 Vib (V=0)  2    0.106823D+01          0.028663          0.065999
 Electronic      0.200000D+01          0.301030          0.693147
 Translational   0.276456D+07          6.441626         14.832392
 Rotational      0.119165D+04          3.076149          7.083094
 
                                                                 job
                                                             IR Spectrum
 
      3     3                                               1               1          1 1                                           
      3     1                                               9               5          2 1                     5                     
      5     8                                               0               0          0 3                     7                     
      0     6                                               4               3          3 9                     0                     
 
      X     X                                               X               X          X X                     X                     
      X                                                     X               X            X                     X                     
      X                                                     X               X            X                                           
      X                                                     X               X            X                                           
      X                                                     X               X                                                        
      X                                                     X               X                                                        
      X                                                     X                                                                        
      X                                                     X                                                                        
      X                                                     X                                                                        
      X                                                                                                                              
      X                                                                                                                              
      X                                                                                                                              
      X                                                                                                                              
      X                                                                                                                              
      X                                                                                                                              
      X                                                                                                                              
      X                                                                                                                              
      X                                                                                                                              
      X                                                                                                                              
      X                                                                                                                              
 
 ***** Axes restored to original set *****
 -------------------------------------------------------------------
 Center     Atomic                   Forces (Hartrees/Bohr)
 Number     Number              X              Y              Z
 -------------------------------------------------------------------
    1          6          -0.000125790    0.000255494   -0.000084440
    2          1           0.000000810   -0.000001669    0.000000690
    3          1           0.000000937   -0.000001638    0.000000466
    4          1           0.000000680   -0.000001734    0.000000446
    5          1           0.000128193   -0.000259747    0.000085999
    6          1          -0.000004829    0.000009294   -0.000003162
 -------------------------------------------------------------------
 Cartesian Forces:  Max     0.000259747 RMS     0.000099905
 Force constants in Cartesian coordinates: 
                1             2             3             4             5
      1  0.530221D+00
      2  0.197792D+00  0.225572D+00
      3 -0.654212D-01  0.132956D+00  0.583569D+00
      4 -0.496017D-01 -0.126515D-01  0.572861D-02  0.452435D-01
      5 -0.126535D-01 -0.301099D-01 -0.115416D-01  0.811292D-02  0.327415D-01
      6  0.121498D-01 -0.245899D-01 -0.365635D+00 -0.101511D-01  0.205210D-01
      7 -0.314147D+00 -0.274171D-01  0.120281D+00  0.401623D-02 -0.104037D-03
      8 -0.153422D-01 -0.301019D-01 -0.741034D-02  0.393041D-03  0.137831D-02
      9  0.113856D+00 -0.246990D-02 -0.101097D+00  0.306295D-01  0.453950D-03
     10 -0.156461D+00 -0.136701D+00 -0.675420D-01  0.250406D-02  0.156640D-02
     11 -0.148774D+00 -0.187730D+00 -0.998726D-01  0.106519D-02  0.289733D-02
     12 -0.675383D-01 -0.917647D-01 -0.101156D+00 -0.190438D-01 -0.239901D-01
     13  0.782394D-02 -0.691176D-01  0.228611D-01 -0.286153D-02  0.508985D-02
     14 -0.691193D-01  0.114287D+00 -0.464619D-01  0.509221D-02 -0.107055D-01
     15  0.228613D-01 -0.464613D-01 -0.108180D-01 -0.802450D-02  0.163077D-01
     16 -0.178349D-01  0.480949D-01 -0.159077D-01  0.699485D-03 -0.201164D-02
     17  0.480966D-01 -0.919175D-01  0.323306D-01 -0.201188D-02  0.379821D-02
     18 -0.159079D-01  0.323300D-01 -0.486319D-02  0.861419D-03 -0.175091D-02
                6             7             8             9            10
      6  0.382488D+00
      7 -0.391506D-02  0.327116D+00
      8 -0.270443D-03  0.219285D-01  0.327289D-01
      9 -0.690275D-02 -0.125364D+00 -0.189861D-03  0.100629D+00
     10  0.260540D-02 -0.113244D-01 -0.216158D-01 -0.133848D-01  0.163463D+00
     11  0.293854D-02  0.313064D-02  0.290697D-02 -0.120273D-03  0.147875D+00
     12 -0.690956D-02  0.825698D-02  0.105258D-01  0.690923D-02  0.766684D-01
     13 -0.108965D-02 -0.711057D-02  0.170174D-01 -0.629143D-02  0.777664D-03
     14  0.221552D-02  0.397666D-02 -0.107104D-01  0.388180D-02  0.109414D-01
     15 -0.410220D-02  0.647392D-03 -0.145401D-02  0.151797D-03  0.758618D-03
     16  0.400680D-03  0.145009D-02 -0.238091D-02  0.554720D-03  0.104053D-02
     17 -0.814696D-03 -0.151461D-02  0.379813D-02 -0.155572D-02 -0.206579D-02
     18  0.106094D-02  0.937460D-04 -0.120119D-02  0.310392D-03  0.894465D-03
               11            12            13            14            15
     11  0.196317D+00
     12  0.992641D-01  0.100693D+00
     13 -0.209740D-02  0.762624D-03  0.159869D-01
     14 -0.185995D-01  0.735357D-02  0.501348D-01 -0.612344D-01
     15 -0.140295D-02  0.152936D-03 -0.165823D-01  0.337006D-01  0.295091D-01
     16 -0.119938D-02  0.894187D-03 -0.146164D-01 -0.102571D-02  0.339445D-03
     17  0.420741D-02 -0.138872D-02 -0.102706D-02 -0.130369D-01 -0.689960D-03
     18 -0.806883D-03  0.310561D-03  0.339675D-03 -0.689520D-03 -0.148936D-01
               16            17            18
     16  0.292613D-01
     17 -0.414773D-01  0.931507D-01
     18  0.137186D-01 -0.278815D-01  0.180749D-01
 Force constants in internal coordinates: 
                1             2             3             4             5
      1  0.383893D+00
      2 -0.666068D-03  0.383893D+00
      3 -0.666077D-03 -0.666081D-03  0.383893D+00
      4  0.172101D-02  0.172099D-02  0.172099D-02  0.112416D-02
      5 -0.912107D-03 -0.912104D-03 -0.912072D-03  0.110477D+00  0.122781D+00
      6  0.969681D-02  0.969682D-02 -0.737021D-02 -0.125785D-01  0.511086D-02
      7  0.969680D-02 -0.737022D-02  0.969679D-02 -0.125785D-01  0.511086D-02
      8 -0.292463D-02 -0.648282D-02 -0.648282D-02  0.166240D-01 -0.675467D-02
      9 -0.737021D-02  0.969678D-02  0.969678D-02 -0.125785D-01  0.511085D-02
     10 -0.648283D-02 -0.292464D-02 -0.648281D-02  0.166239D-01 -0.675460D-02
     11 -0.648283D-02 -0.648283D-02 -0.292464D-02  0.166238D-01 -0.675449D-02
     12  0.606058D-03 -0.121215D-02  0.606102D-03  0.000000D+00  0.000000D+00
     13  0.563400D-03  0.000000D+00 -0.563392D-03  0.000000D+00  0.000000D+00
                6             7             8             9            10
      6  0.928476D-01
      7 -0.271250D-01  0.928475D-01
      8 -0.179345D-01 -0.179344D-01  0.682441D-01
      9 -0.271251D-01 -0.271251D-01 -0.151420D-01  0.928474D-01
     10 -0.179345D-01 -0.151421D-01 -0.413697D-03 -0.179344D-01  0.682442D-01
     11 -0.151420D-01 -0.179344D-01 -0.413517D-03 -0.179344D-01 -0.413513D-03
     12 -0.306370D-03  0.612643D-03  0.103927D-02 -0.306356D-03 -0.207857D-02
     13  0.284796D-03  0.000000D+00  0.966135D-03 -0.284713D-03  0.000000D+00
               11            12            13
     11  0.682437D-01
     12  0.103941D-02  0.242765D-01
     13 -0.966138D-03  0.000000D+00  0.699234D-02
 Leave Link  716 at Wed Apr 10 02:59:40 2013, MaxMem=    6291456 cpu:       0.0
 (Enter /soft/g03/g03/l103.exe)

 GradGradGradGradGradGradGradGradGradGradGradGradGradGradGradGradGradGrad
 Berny optimization.
 Internal  Forces:  Max     0.000291217 RMS     0.000080840
 Search for a saddle point.
 Step number   1 out of a maximum of   2
 All quantities printed in internal units (Hartrees-Bohrs-Radians)
 Swaping is turned off.
 Second derivative matrix not updated -- analytic derivatives used.
 The second derivative matrix:
                          R1        R2        R3        R4        R5
           R1           0.38389
           R2          -0.00067   0.38389
           R3          -0.00067  -0.00067   0.38389
           R4           0.00172   0.00172   0.00172   0.00112
           R5          -0.00091  -0.00091  -0.00091   0.11048   0.12278
           A1           0.00970   0.00970  -0.00737  -0.01258   0.00511
           A2           0.00970  -0.00737   0.00970  -0.01258   0.00511
           A3          -0.00292  -0.00648  -0.00648   0.01662  -0.00675
           A4          -0.00737   0.00970   0.00970  -0.01258   0.00511
           A5          -0.00648  -0.00292  -0.00648   0.01662  -0.00675
           A6          -0.00648  -0.00648  -0.00292   0.01662  -0.00675
           A7           0.00061  -0.00121   0.00061   0.00000   0.00000
           A8           0.00056   0.00000  -0.00056   0.00000   0.00000
                          A1        A2        A3        A4        A5
           A1           0.09285
           A2          -0.02713   0.09285
           A3          -0.01793  -0.01793   0.06824
           A4          -0.02713  -0.02713  -0.01514   0.09285
           A5          -0.01793  -0.01514  -0.00041  -0.01793   0.06824
           A6          -0.01514  -0.01793  -0.00041  -0.01793  -0.00041
           A7          -0.00031   0.00061   0.00104  -0.00031  -0.00208
           A8           0.00028   0.00000   0.00097  -0.00028   0.00000
                          A6        A7        A8
           A6           0.06824
           A7           0.00104   0.02428
           A8          -0.00097   0.00000   0.00699
     Eigenvalues ---   -0.07262   0.00696   0.02412   0.06847   0.06859
     Eigenvalues ---    0.11262   0.11906   0.11906   0.18849   0.38399
     Eigenvalues ---    0.38569   0.385701000.00000
 Eigenvectors required to have negative eigenvalues:
                          R1        R2        R3        R4        R5
         1             -0.00956  -0.00956  -0.00956   0.84344  -0.49299
                          A1        A2        A3        A4        A5
         1              0.07414   0.07414  -0.09798   0.07414  -0.09798
                          A6        A7        A8
         1             -0.09798   0.00000   0.00000
 Angle between quadratic step and forces= 136.66 degrees.
 Linear search not attempted -- option 19 set.
 Iteration  1 RMS(Cart)=  0.00055381 RMS(Int)=  0.00000022
 Iteration  2 RMS(Cart)=  0.00000016 RMS(Int)=  0.00000014
 Variable       Old X    -DE/DX   Delta X   Delta X   Delta X     New X
                                 (Linear)    (Quad)   (Total)
    R1        2.04352   0.00000   0.00000  -0.00005  -0.00005   2.04347
    R2        2.04352   0.00000   0.00000  -0.00005  -0.00005   2.04347
    R3        2.04352   0.00000   0.00000  -0.00005  -0.00005   2.04347
    R4        2.63998  -0.00029   0.00000   0.00249   0.00249   2.64247
    R5        1.65533   0.00001   0.00000  -0.00229  -0.00229   1.65304
    A1        2.00037   0.00000   0.00000   0.00039   0.00039   2.00076
    A2        2.00037   0.00000   0.00000   0.00039   0.00039   2.00076
    A3        1.80901   0.00000   0.00000  -0.00052  -0.00052   1.80849
    A4        2.00037   0.00000   0.00000   0.00039   0.00039   2.00076
    A5        1.80901   0.00000   0.00000  -0.00052  -0.00052   1.80849
    A6        1.80901   0.00000   0.00000  -0.00052  -0.00052   1.80849
    A7        3.14158   0.00000   0.00000   0.00001   0.00001   3.14159
    A8        3.14161   0.00000   0.00000  -0.00002  -0.00002   3.14159
         Item               Value     Threshold  Converged?
 Maximum Force            0.000291     0.000450     YES
 RMS     Force            0.000081     0.000300     YES
 Maximum Displacement     0.001311     0.001800     YES
 RMS     Displacement     0.000554     0.001200     YES
 Predicted change in Energy= 3.782850D-07
 Optimization completed.
    -- Stationary point found.
                           ----------------------------
                           !   Optimized Parameters   !
                           ! (Angstroms and Degrees)  !
 --------------------------                            --------------------------
 ! Name  Definition              Value          Derivative Info.                !
 --------------------------------------------------------------------------------
 ! R1    R(1,2)                  1.0814         -DE/DX =    0.0                 !
 ! R2    R(1,3)                  1.0814         -DE/DX =    0.0                 !
 ! R3    R(1,4)                  1.0814         -DE/DX =    0.0                 !
 ! R4    R(1,5)                  1.397          -DE/DX =   -0.0003              !
 ! R5    R(5,6)                  0.876          -DE/DX =    0.0                 !
 ! A1    A(2,1,3)              114.6126         -DE/DX =    0.0                 !
 ! A2    A(2,1,4)              114.6126         -DE/DX =    0.0                 !
 ! A3    A(2,1,5)              103.6484         -DE/DX =    0.0                 !
 ! A4    A(3,1,4)              114.6126         -DE/DX =    0.0                 !
 ! A5    A(3,1,5)              103.6485         -DE/DX =    0.0                 !
 ! A6    A(4,1,5)              103.6486         -DE/DX =    0.0                 !
 ! A7    L(1,5,6,3,-1)         179.9993         -DE/DX =    0.0                 !
 ! A8    L(1,5,6,3,-2)         180.0012         -DE/DX =    0.0                 !
 --------------------------------------------------------------------------------
 GradGradGradGradGradGradGradGradGradGradGradGradGradGradGradGradGradGrad

 Leave Link  103 at Wed Apr 10 02:59:40 2013, MaxMem=    6291456 cpu:       0.0
 (Enter /soft/g03/g03/l9999.exe)

 Test job not archived.
 1\1\GINC-AN181\Freq\UMP2-FC\6-31G(d,p)\C1H5(2)\SCANNE04\10-Apr-2013\0\
 \#P GEOM=ALLCHECK GUESS=READ SCRF=CHECK TEST GENCHK UMP2(FC)/6-31G(D,P
 ) FREQ\\job\\0,2\C,0.1117563302,-0.2271265855,0.0751229129\H,0.0876189
 556,-0.1784241095,1.1551401659\H,1.1023720092,-0.1788875813,-0.3558589
 056\H,-0.5307190247,-0.9825397296,-0.3561173005\H,-0.4795341818,0.9745
 588862,-0.3223421319\H,-0.8502757395,1.7280520471,-0.5715593054\\Versi
 on=AM64L-G03RevC.02\State=2-A\HF=-40.6623203\MP2=-40.8275403\PUHF=-40.
 6694654\PMP2-0=-40.8323867\S2=0.785734\S2-1=0.762602\S2A=0.750362\RMSD
 =2.545e-10\RMSF=9.991e-05\Dipole=0.1246462,-0.2533211,0.0837875\Dipole
 Deriv=0.0666741,-0.0127242,0.0042086,-0.0127246,0.0862743,-0.0085534,0
 .0042087,-0.0085534,0.0632422,0.0482553,0.0109896,-0.0102695,0.0109842
 ,0.0313329,0.020911,0.0054456,-0.0110231,-0.0794016,-0.0628126,-0.0059
 975,0.0508472,0.0235539,0.0313348,0.002242,0.0351232,0.0143335,0.03166
 43,0.0047964,-0.0284818,-0.0328081,-0.0580294,-0.0362491,-0.0389436,-0
 .032799,-0.0191001,0.0316404,-0.0138164,0.0090995,-0.0030102,0.0091016
 ,-0.0278311,0.0061175,-0.0030104,0.0061167,-0.0113613,-0.0430968,0.027
 1143,-0.0089681,0.0271143,-0.0848617,0.0182265,-0.008968,0.0182264,-0.
 035784\Polar=15.2145128,-5.4553305,23.6175118,1.8043559,-3.6671123,13.
 743188\PG=C01 [X(C1H5)]\NImag=1\\0.53022142,0.19779206,0.22557227,-0.0
 6542125,0.13295583,0.58356912,-0.04960172,-0.01265148,0.00572861,0.045
 24347,-0.01265349,-0.03010989,-0.01154156,0.00811292,0.03274153,0.0121
 4976,-0.02458990,-0.36563488,-0.01015114,0.02052098,0.38248845,-0.3141
 4741,-0.02741712,0.12028124,0.00401623,-0.00010404,-0.00391506,0.32711
 603,-0.01534222,-0.03010192,-0.00741034,0.00039304,0.00137831,-0.00027
 044,0.02192847,0.03272886,0.11385639,-0.00246990,-0.10109730,0.0306294
 5,0.00045395,-0.00690275,-0.12536430,-0.00018986,0.10062864,-0.1564612
 9,-0.13670078,-0.06754203,0.00250406,0.00156640,0.00260540,-0.01132437
 ,-0.02161580,-0.01338483,0.16346341,-0.14877365,-0.18772962,-0.0998725
 7,0.00106519,0.00289733,0.00293854,0.00313064,0.00290697,-0.00012027,0
 .14787460,0.19631744,-0.06753832,-0.09176470,-0.10115570,-0.01904384,-
 0.02399013,-0.00690956,0.00825698,0.01052584,0.00690923,0.07666838,0.0
 9926413,0.10069253,0.00782394,-0.06911762,0.02286108,-0.00286153,0.005
 08985,-0.00108965,-0.00711057,0.01701743,-0.00629143,0.00077766,-0.002
 09740,0.00076262,0.01598695,-0.06911933,0.11428666,-0.04646193,0.00509
 221,-0.01070549,0.00221552,0.00397666,-0.01071035,0.00388180,0.0109413
 7,-0.01859953,0.00735357,0.05013479,-0.06123435,0.02286134,-0.04646131
 ,-0.01081805,-0.00802450,0.01630767,-0.00410220,0.00064739,-0.00145401
 ,0.00015180,0.00075862,-0.00140295,0.00015294,-0.01658230,0.03370056,0
 .02950907,-0.01783493,0.04809495,-0.01590765,0.00069949,-0.00201164,0.
 00040068,0.00145009,-0.00238091,0.00055472,0.00104053,-0.00119938,0.00
 089419,-0.01461645,-0.00102571,0.00033944,0.02926128,0.04809664,-0.091
 91751,0.03233057,-0.00201188,0.00379821,-0.00081470,-0.00151461,0.0037
 9813,-0.00155572,-0.00206579,0.00420741,-0.00138872,-0.00102706,-0.013
 03695,-0.00068996,-0.04147730,0.09315071,-0.01590793,0.03232998,-0.004
 86319,0.00086142,-0.00175091,0.00106094,0.00009375,-0.00120119,0.00031
 039,0.00089446,-0.00080688,0.00031056,0.00033967,-0.00068952,-0.014893
 55,0.01371862,-0.02788148,0.01807485\\0.00012579,-0.00025549,0.0000844
 4,-0.00000081,0.00000167,-0.00000069,-0.00000094,0.00000164,-0.0000004
 7,-0.00000068,0.00000173,-0.00000045,-0.00012819,0.00025975,-0.0000860
 0,0.00000483,-0.00000929,0.00000316\\\@


 THE MOST SERIOUS THREAT TO THE SURVIVAL OF MANKIND IS NOT NOW
 IGNORANCE IN THE TRADITIONAL SENSE,
 BUT A MORALLY NEUTRAL, AN INSENSITIVE OR INHIBITED HUMAN INTELLIGENCE.

                     -- MARGO JEFFERSON IN NEWSWEEK, SEPTEMBER 2, 1974
 Job cpu time:  0 days  0 hours  0 minutes  9.6 seconds.
 File lengths (MBytes):  RWF=     54 Int=      0 D2E=      0 Chk=      6 Scr=      1
 Normal termination of Gaussian 03 at Wed Apr 10 02:59:40 2013.
total 20
drwx------  2 scanne04 2013007  4096 Apr 10 02:59 .
drwxrwxrwt 69 root     root    12288 Apr 10 02:59 ..
-rw-r--r--  1 scanne04 2013007   302 Apr 10 02:59 ts.inp
/local/run/antares-adm.114830.0
