 Entering Gaussian System, Link 0=g03
 Initial command:
 /soft/g03/g03/l1.exe /local/run/antares-adm.114825.0/Gau-23028.inp -scrdir=/local/run/antares-adm.114825.0/
 Entering Link 1 = /soft/g03/g03/l1.exe PID=     23029.
  
 Copyright (c) 1988,1990,1992,1993,1995,1998,2003,2004, Gaussian, Inc.
                  All Rights Reserved.
  
 This is the Gaussian(R) 03 program.  It is based on the
 the Gaussian(R) 98 system (copyright 1998, Gaussian, Inc.),
 the Gaussian(R) 94 system (copyright 1995, Gaussian, Inc.),
 the Gaussian 92(TM) system (copyright 1992, Gaussian, Inc.),
 the Gaussian 90(TM) system (copyright 1990, Gaussian, Inc.),
 the Gaussian 88(TM) system (copyright 1988, Gaussian, Inc.),
 the Gaussian 86(TM) system (copyright 1986, Carnegie Mellon
 University), and the Gaussian 82(TM) system (copyright 1983,
 Carnegie Mellon University). Gaussian is a federally registered
 trademark of Gaussian, Inc.
  
 This software contains proprietary and confidential information,
 including trade secrets, belonging to Gaussian, Inc.
  
 This software is provided under written license and may be
 used, copied, transmitted, or stored only in accord with that
 written license.
  
 The following legend is applicable only to US Government
 contracts under FAR:
  
                    RESTRICTED RIGHTS LEGEND
  
 Use, reproduction and disclosure by the US Government is
 subject to restrictions as set forth in subparagraphs (a)
 and (c) of the Commercial Computer Software - Restricted
 Rights clause in FAR 52.227-19.
  
 Gaussian, Inc.
 340 Quinnipiac St., Bldg. 40, Wallingford CT 06492
  
  
 ---------------------------------------------------------------
 Warning -- This program may not be used in any manner that
 competes with the business of Gaussian, Inc. or will provide
 assistance to any competitor of Gaussian, Inc.  The licensee
 of this program is prohibited from giving any competitor of
 Gaussian, Inc. access to this program.  By using this program,
 the user acknowledges that Gaussian, Inc. is engaged in the
 business of creating and licensing software in the field of
 computational chemistry and represents and warrants to the
 licensee that it is not a competitor of Gaussian, Inc. and that
 it will not use this program in any manner prohibited above.
 ---------------------------------------------------------------
  

 Cite this work as:
 Gaussian 03, Revision C.02,
 M. J. Frisch, G. W. Trucks, H. B. Schlegel, G. E. Scuseria, 
 M. A. Robb, J. R. Cheeseman, J. A. Montgomery, Jr., T. Vreven, 
 K. N. Kudin, J. C. Burant, J. M. Millam, S. S. Iyengar, J. Tomasi, 
 V. Barone, B. Mennucci, M. Cossi, G. Scalmani, N. Rega, 
 G. A. Petersson, H. Nakatsuji, M. Hada, M. Ehara, K. Toyota, 
 R. Fukuda, J. Hasegawa, M. Ishida, T. Nakajima, Y. Honda, O. Kitao, 
 H. Nakai, M. Klene, X. Li, J. E. Knox, H. P. Hratchian, J. B. Cross, 
 C. Adamo, J. Jaramillo, R. Gomperts, R. E. Stratmann, O. Yazyev, 
 A. J. Austin, R. Cammi, C. Pomelli, J. W. Ochterski, P. Y. Ayala, 
 K. Morokuma, G. A. Voth, P. Salvador, J. J. Dannenberg, 
 V. G. Zakrzewski, S. Dapprich, A. D. Daniels, M. C. Strain, 
 O. Farkas, D. K. Malick, A. D. Rabuck, K. Raghavachari, 
 J. B. Foresman, J. V. Ortiz, Q. Cui, A. G. Baboul, S. Clifford, 
 J. Cioslowski, B. B. Stefanov, G. Liu, A. Liashenko, P. Piskorz, 
 I. Komaromi, R. L. Martin, D. J. Fox, T. Keith, M. A. Al-Laham, 
 C. Y. Peng, A. Nanayakkara, M. Challacombe, P. M. W. Gill, 
 B. Johnson, W. Chen, M. W. Wong, C. Gonzalez, and J. A. Pople, 
 Gaussian, Inc., Wallingford CT, 2004.
 
 ******************************************
 Gaussian 03:  AM64L-G03RevC.02 12-Jun-2004
                10-Apr-2013 
 ******************************************
 -----------------------------------------------------
 #P MP2 6-31G** iop(6/7=3) gfinput pop=full # opt freq
 -----------------------------------------------------
 1/18=20,38=1/1,3;
 2/9=110,17=6,18=5,40=1/2;
 3/5=1,6=6,7=101,11=9,16=1,24=10,25=1,30=1/1,2,3;
 4//1;
 5/5=2,38=5/2;
 8/6=4,10=2/1;
 9/15=2,16=-3/6;
 10/5=1/2;
 6/7=3/1;
 7/12=2/1,2,3,16;
 1/18=20/3(1);
 99//99;
 2/9=110/2;
 3/5=1,6=6,7=101,11=9,16=1,25=1,30=1/1,2,3;
 4/5=5,16=3/1;
 5/5=2,38=5/2;
 8/6=4,10=2/1;
 9/15=2,16=-3/6;
 10/5=1/2;
 7/12=2/1,2,3,16;
 1/18=20/3(-8);
 2/9=110/2;
 6/7=3/1;
 99//99;
 Leave Link    1 at Wed Apr 10 02:54:52 2013, MaxMem=          0 cpu:       0.1
 (Enter /soft/g03/g03/l101.exe)
 ---
 job
 ---
 Symbolic Z-matrix:
 Charge =  0 Multiplicity = 1
 C                     0.        0.        0. 
 H                     0.        0.        1.0827 
 H                     1.0208    0.       -0.36085 
 H                    -0.5104   -0.88404  -0.36085 
 H                    -0.5104    0.88404  -0.36085 
 
                    Isotopes and Nuclear Properties:

  Atom         1           2           3           4           5
 IAtWgt=          12           1           1           1           1
 AtmWgt=  12.0000000   1.0078250   1.0078250   1.0078250   1.0078250
 IAtSpn=           0           1           1           1           1
 AtZEff=   0.0000000   0.0000000   0.0000000   0.0000000   0.0000000
 AtQMom=   0.0000000   0.0000000   0.0000000   0.0000000   0.0000000
 AtGFac=   0.0000000   2.7928460   2.7928460   2.7928460   2.7928460
 Leave Link  101 at Wed Apr 10 02:54:52 2013, MaxMem=    6291456 cpu:       0.1
 (Enter /soft/g03/g03/l103.exe)

 GradGradGradGradGradGradGradGradGradGradGradGradGradGradGradGradGradGrad
 Berny optimization.
 Initialization pass.
                           ----------------------------
                           !    Initial Parameters    !
                           ! (Angstroms and Degrees)  !
 --------------------------                            --------------------------
 ! Name  Definition              Value          Derivative Info.                !
 --------------------------------------------------------------------------------
 ! R1    R(1,2)                  1.0827         estimate D2E/DX2                !
 ! R2    R(1,3)                  1.0827         estimate D2E/DX2                !
 ! R3    R(1,4)                  1.0827         estimate D2E/DX2                !
 ! R4    R(1,5)                  1.0827         estimate D2E/DX2                !
 ! A1    A(2,1,3)              109.4686         estimate D2E/DX2                !
 ! A2    A(2,1,4)              109.4686         estimate D2E/DX2                !
 ! A3    A(2,1,5)              109.4686         estimate D2E/DX2                !
 ! A4    A(3,1,4)              109.4739         estimate D2E/DX2                !
 ! A5    A(3,1,5)              109.4739         estimate D2E/DX2                !
 ! A6    A(4,1,5)              109.4738         estimate D2E/DX2                !
 --------------------------------------------------------------------------------
 Trust Radius=3.00D-01 FncErr=1.00D-07 GrdErr=1.00D-07
 Number of steps in this run=  20 maximum allowed number of steps= 100.
 GradGradGradGradGradGradGradGradGradGradGradGradGradGradGradGradGradGrad

 Leave Link  103 at Wed Apr 10 02:54:52 2013, MaxMem=    6291456 cpu:       0.0
 (Enter /soft/g03/g03/l202.exe)
                          Input orientation:                          
 ---------------------------------------------------------------------
 Center     Atomic     Atomic              Coordinates (Angstroms)
 Number     Number      Type              X           Y           Z
 ---------------------------------------------------------------------
    1          6             0        0.000000    0.000000    0.000000
    2          1             0        0.000000    0.000000    1.082700
    3          1             0        1.020796    0.000000   -0.360853
    4          1             0       -0.510398   -0.884035   -0.360853
    5          1             0       -0.510398    0.884035   -0.360853
 ---------------------------------------------------------------------
                    Distance matrix (angstroms):
                    1          2          3          4          5
     1  C    0.000000
     2  H    1.082700   0.000000
     3  H    1.082700   1.768013   0.000000
     4  H    1.082700   1.768013   1.768070   0.000000
     5  H    1.082700   1.768013   1.768070   1.768070   0.000000
 Stoichiometry    CH4
 Framework group  C3V[C3(HC),3SGV(H)]
 Deg. of freedom     3
 Full point group                 C3V     NOp   6
 Largest Abelian subgroup         CS      NOp   2
 Largest concise Abelian subgroup CS      NOp   2
                         Standard orientation:                         
 ---------------------------------------------------------------------
 Center     Atomic     Atomic              Coordinates (Angstroms)
 Number     Number      Type              X           Y           Z
 ---------------------------------------------------------------------
    1          6             0        0.000000    0.000000    0.000014
    2          1             0        0.000000    0.000000   -1.082686
    3          1             0        0.000000    1.020796    0.360867
    4          1             0       -0.884035   -0.510398    0.360867
    5          1             0        0.884035   -0.510398    0.360867
 ---------------------------------------------------------------------
 Rotational constants (GHZ):    160.4183711    160.4183711    160.4105321
 Leave Link  202 at Wed Apr 10 02:54:52 2013, MaxMem=    6291456 cpu:       0.0
 (Enter /soft/g03/g03/l301.exe)
 Standard basis: 6-31G(d,p) (6D, 7F)
 AO basis set in the form of general basis input:
  1 0
 S   6 1.00       0.000000000000
      0.3047524880D+04  0.1834737132D-02
      0.4573695180D+03  0.1403732281D-01
      0.1039486850D+03  0.6884262226D-01
      0.2921015530D+02  0.2321844432D+00
      0.9286662960D+01  0.4679413484D+00
      0.3163926960D+01  0.3623119853D+00
 SP   3 1.00       0.000000000000
      0.7868272350D+01 -0.1193324198D+00  0.6899906659D-01
      0.1881288540D+01 -0.1608541517D+00  0.3164239610D+00
      0.5442492580D+00  0.1143456438D+01  0.7443082909D+00
 SP   1 1.00       0.000000000000
      0.1687144782D+00  0.1000000000D+01  0.1000000000D+01
 D   1 1.00       0.000000000000
      0.8000000000D+00  0.1000000000D+01
 ****
  2 0
 S   3 1.00       0.000000000000
      0.1873113696D+02  0.3349460434D-01
      0.2825394365D+01  0.2347269535D+00
      0.6401216923D+00  0.8137573261D+00
 S   1 1.00       0.000000000000
      0.1612777588D+00  0.1000000000D+01
 P   1 1.00       0.000000000000
      0.1100000000D+01  0.1000000000D+01
 ****
  3 0
 S   3 1.00       0.000000000000
      0.1873113696D+02  0.3349460434D-01
      0.2825394365D+01  0.2347269535D+00
      0.6401216923D+00  0.8137573261D+00
 S   1 1.00       0.000000000000
      0.1612777588D+00  0.1000000000D+01
 P   1 1.00       0.000000000000
      0.1100000000D+01  0.1000000000D+01
 ****
  4 0
 S   3 1.00       0.000000000000
      0.1873113696D+02  0.3349460434D-01
      0.2825394365D+01  0.2347269535D+00
      0.6401216923D+00  0.8137573261D+00
 S   1 1.00       0.000000000000
      0.1612777588D+00  0.1000000000D+01
 P   1 1.00       0.000000000000
      0.1100000000D+01  0.1000000000D+01
 ****
  5 0
 S   3 1.00       0.000000000000
      0.1873113696D+02  0.3349460434D-01
      0.2825394365D+01  0.2347269535D+00
      0.6401216923D+00  0.8137573261D+00
 S   1 1.00       0.000000000000
      0.1612777588D+00  0.1000000000D+01
 P   1 1.00       0.000000000000
      0.1100000000D+01  0.1000000000D+01
 ****

 There are    24 symmetry adapted basis functions of A'  symmetry.
 There are    11 symmetry adapted basis functions of A"  symmetry.
 Integral buffers will be    131072 words long.
 Raffenetti 1 integral format.
 Two-electron integral symmetry is turned on.
    35 basis functions,    56 primitive gaussians,    35 cartesian basis functions
     5 alpha electrons        5 beta electrons
       nuclear repulsion energy        13.5259756933 Hartrees.
 IExCor=   0 DFT=F Ex=HF Corr=None ExCW=0 ScaHFX=  1.000000
 ScaDFX=  1.000000  1.000000  1.000000  1.000000
 IRadAn=      0 IRanWt=     -1 IRanGd=            0 ICorTp=0
 NAtoms=    5 NActive=    5 NUniq=    3 SFac= 3.59D+00 NAtFMM=   60 Big=F
 Leave Link  301 at Wed Apr 10 02:54:52 2013, MaxMem=    6291456 cpu:       0.0
 (Enter /soft/g03/g03/l302.exe)
 NPDir=0 NMtPBC=     1 NCelOv=     1 NCel=       1 NClECP=     1 NCelD=      1
         NCelK=      1 NCelE2=     1 NClLst=     1 CellRange=     0.0.
 One-electron integrals computed using PRISM.
 One-electron integral symmetry used in STVInt
 NBasis=    35 RedAO= T  NBF=    24    11
 NBsUse=    35 1.00D-06 NBFU=    24    11
 Leave Link  302 at Wed Apr 10 02:54:52 2013, MaxMem=    6291456 cpu:       0.1
 (Enter /soft/g03/g03/l303.exe)
 DipDrv:  MaxL=1.
 Leave Link  303 at Wed Apr 10 02:54:52 2013, MaxMem=    6291456 cpu:       0.0
 (Enter /soft/g03/g03/l401.exe)
 Harris functional with IExCor=  205 diagonalized for initial guess.
 ExpMin= 1.61D-01 ExpMax= 3.05D+03 ExpMxC= 4.57D+02 IAcc=1 IRadAn=         1 AccDes= 1.00D-06
 HarFok:  IExCor= 205 AccDes= 1.00D-06 IRadAn=         1 IDoV=1
 ScaDFX=  1.000000  1.000000  1.000000  1.000000
 Harris En= -40.3919619701972    
 Initial guess orbital symmetries:
       Occupied  (A1) (A1) (E) (E) (A1)
       Virtual   (A1) (A1) (E) (E) (A1) (E) (E) (A1) (E) (E) (A1)
                 (A1) (E) (E) (A1) (E) (E) (A2) (E) (E) (A1) (E)
                 (E) (E) (E) (A1) (A1) (E) (E) (A1)
 The electronic state of the initial guess is 1-A1.
 Leave Link  401 at Wed Apr 10 02:54:52 2013, MaxMem=    6291456 cpu:       0.0
 (Enter /soft/g03/g03/l502.exe)
 Closed shell SCF:
 Requested convergence on RMS density matrix=1.00D-08 within 128 cycles.
 Requested convergence on MAX density matrix=1.00D-06.
 Requested convergence on             energy=1.00D-06.
 No special actions if energy rises.
 Using DIIS extrapolation, IDIIS=  1040.
 Integral symmetry usage will be decided dynamically.
 Keep R1 integrals in memory in canonical form, NReq=     1064028.
 IEnd=     21939 IEndB=     21939 NGot=   6291456 MDV=   6088639
 LenX=   6088639
 Symmetry not used in FoFDir.
 MinBra= 0 MaxBra= 2 Meth= 1.
 IRaf=       0 NMat=   1 IRICut=       1 DoRegI=T DoRafI=F ISym2E= 0 JSym2E=0.

 Cycle   1  Pass 1  IDiag  1:
 E= -40.0604183722503    
 DIIS: error= 6.01D-02 at cycle   1 NSaved=   1.
 NSaved= 1 IEnMin= 1 EnMin= -40.0604183722503     IErMin= 1 ErrMin= 6.01D-02
 ErrMax= 6.01D-02 EMaxC= 1.00D-01 BMatC= 1.52D-01 BMatP= 1.52D-01
 IDIUse=3 WtCom= 3.99D-01 WtEn= 6.01D-01
 Coeff-Com:  0.100D+01
 Coeff-En:   0.100D+01
 Coeff:      0.100D+01
 Gap=     0.719 Goal=   None    Shift=    0.000
 GapD=    0.719 DampG=2.000 DampE=0.500 DampFc=1.0000 IDamp=-1.
 RMSDP=1.07D-02 MaxDP=1.38D-01              OVMax= 1.52D-01

 Cycle   2  Pass 1  IDiag  1:
 E= -40.1806203431178     Delta-E=       -0.120201970867 Rises=F Damp=F
 DIIS: error= 2.46D-02 at cycle   2 NSaved=   2.
 NSaved= 2 IEnMin= 2 EnMin= -40.1806203431178     IErMin= 2 ErrMin= 2.46D-02
 ErrMax= 2.46D-02 EMaxC= 1.00D-01 BMatC= 2.32D-02 BMatP= 1.52D-01
 IDIUse=3 WtCom= 7.54D-01 WtEn= 2.46D-01
 Coeff-Com:  0.254D+00 0.746D+00
 Coeff-En:   0.000D+00 0.100D+01
 Coeff:      0.191D+00 0.809D+00
 Gap=     0.811 Goal=   None    Shift=    0.000
 RMSDP=3.24D-03 MaxDP=3.89D-02 DE=-1.20D-01 OVMax= 4.51D-02

 Cycle   3  Pass 1  IDiag  1:
 E= -40.2012826968117     Delta-E=       -0.020662353694 Rises=F Damp=F
 DIIS: error= 3.30D-03 at cycle   3 NSaved=   3.
 NSaved= 3 IEnMin= 3 EnMin= -40.2012826968117     IErMin= 3 ErrMin= 3.30D-03
 ErrMax= 3.30D-03 EMaxC= 1.00D-01 BMatC= 3.47D-04 BMatP= 2.32D-02
 IDIUse=3 WtCom= 9.67D-01 WtEn= 3.30D-02
 Coeff-Com: -0.277D-01 0.507D-01 0.977D+00
 Coeff-En:   0.000D+00 0.000D+00 0.100D+01
 Coeff:     -0.268D-01 0.490D-01 0.978D+00
 Gap=     0.802 Goal=   None    Shift=    0.000
 RMSDP=4.87D-04 MaxDP=5.19D-03 DE=-2.07D-02 OVMax= 6.70D-03

 Cycle   4  Pass 1  IDiag  1:
 E= -40.2016957304585     Delta-E=       -0.000413033647 Rises=F Damp=F
 DIIS: error= 4.26D-04 at cycle   4 NSaved=   4.
 NSaved= 4 IEnMin= 4 EnMin= -40.2016957304585     IErMin= 4 ErrMin= 4.26D-04
 ErrMax= 4.26D-04 EMaxC= 1.00D-01 BMatC= 3.60D-06 BMatP= 3.47D-04
 IDIUse=3 WtCom= 9.96D-01 WtEn= 4.26D-03
 Coeff-Com:  0.843D-02-0.278D-01-0.338D+00 0.136D+01
 Coeff-En:   0.000D+00 0.000D+00 0.000D+00 0.100D+01
 Coeff:      0.840D-02-0.277D-01-0.337D+00 0.136D+01
 Gap=     0.802 Goal=   None    Shift=    0.000
 RMSDP=1.17D-04 MaxDP=7.45D-04 DE=-4.13D-04 OVMax= 1.07D-03

 Cycle   5  Pass 1  IDiag  1:
 E= -40.2017027900337     Delta-E=       -0.000007059575 Rises=F Damp=F
 DIIS: error= 2.48D-05 at cycle   5 NSaved=   5.
 NSaved= 5 IEnMin= 5 EnMin= -40.2017027900337     IErMin= 5 ErrMin= 2.48D-05
 ErrMax= 2.48D-05 EMaxC= 1.00D-01 BMatC= 2.64D-08 BMatP= 3.60D-06
 IDIUse=1 WtCom= 1.00D+00 WtEn= 0.00D+00
 Coeff-Com: -0.155D-02 0.537D-02 0.667D-01-0.323D+00 0.125D+01
 Coeff:     -0.155D-02 0.537D-02 0.667D-01-0.323D+00 0.125D+01
 Gap=     0.802 Goal=   None    Shift=    0.000
 RMSDP=1.52D-05 MaxDP=1.00D-04 DE=-7.06D-06 OVMax= 1.08D-04

 Cycle   6  Pass 1  IDiag  1:
 E= -40.2017028489390     Delta-E=       -0.000000058905 Rises=F Damp=F
 DIIS: error= 1.52D-06 at cycle   6 NSaved=   6.
 NSaved= 6 IEnMin= 6 EnMin= -40.2017028489390     IErMin= 6 ErrMin= 1.52D-06
 ErrMax= 1.52D-06 EMaxC= 1.00D-01 BMatC= 4.56D-11 BMatP= 2.64D-08
 IDIUse=1 WtCom= 1.00D+00 WtEn= 0.00D+00
 Coeff-Com:  0.123D-03-0.401D-03-0.520D-02 0.260D-01-0.125D+00 0.110D+01
 Coeff:      0.123D-03-0.401D-03-0.520D-02 0.260D-01-0.125D+00 0.110D+01
 Gap=     0.802 Goal=   None    Shift=    0.000
 RMSDP=6.26D-07 MaxDP=4.61D-06 DE=-5.89D-08 OVMax= 3.52D-06

 Cycle   7  Pass 1  IDiag  1:
 E= -40.2017028490150     Delta-E=       -0.000000000076 Rises=F Damp=F
 DIIS: error= 1.15D-07 at cycle   7 NSaved=   7.
 NSaved= 7 IEnMin= 7 EnMin= -40.2017028490150     IErMin= 7 ErrMin= 1.15D-07
 ErrMax= 1.15D-07 EMaxC= 1.00D-01 BMatC= 3.48D-13 BMatP= 4.56D-11
 IDIUse=1 WtCom= 1.00D+00 WtEn= 0.00D+00
 Coeff-Com: -0.344D-05 0.724D-05 0.131D-03-0.698D-03 0.361D-02-0.945D-01
 Coeff-Com:  0.109D+01
 Coeff:     -0.344D-05 0.724D-05 0.131D-03-0.698D-03 0.361D-02-0.945D-01
 Coeff:      0.109D+01
 Gap=     0.802 Goal=   None    Shift=    0.000
 RMSDP=5.04D-08 MaxDP=5.11D-07 DE=-7.60D-11 OVMax= 2.56D-07

 Cycle   8  Pass 1  IDiag  1:
 E= -40.2017028490156     Delta-E=       -0.000000000001 Rises=F Damp=F
 DIIS: error= 9.22D-09 at cycle   8 NSaved=   8.
 NSaved= 8 IEnMin= 8 EnMin= -40.2017028490156     IErMin= 8 ErrMin= 9.22D-09
 ErrMax= 9.22D-09 EMaxC= 1.00D-01 BMatC= 1.81D-15 BMatP= 3.48D-13
 IDIUse=1 WtCom= 1.00D+00 WtEn= 0.00D+00
 Coeff-Com:  0.272D-06-0.415D-06-0.850D-05 0.451D-04-0.134D-03 0.844D-02
 Coeff-Com: -0.146D+00 0.114D+01
 Coeff:      0.272D-06-0.415D-06-0.850D-05 0.451D-04-0.134D-03 0.844D-02
 Coeff:     -0.146D+00 0.114D+01
 Gap=     0.802 Goal=   None    Shift=    0.000
 RMSDP=1.37D-09 MaxDP=2.32D-08 DE=-5.26D-13 OVMax= 1.72D-08

 SCF Done:  E(RHF) =  -40.2017028490     A.U. after    8 cycles
             Convg  =    0.1374D-08             -V/T =  2.0004
             S**2   =   0.0000
 KE= 4.018687709582D+01 PE=-1.200710809932D+02 EE= 2.615652535514D+01
 Leave Link  502 at Wed Apr 10 02:54:53 2013, MaxMem=    6291456 cpu:       0.1
 (Enter /soft/g03/g03/l801.exe)
 ExpMin= 1.61D-01 ExpMax= 3.05D+03 ExpMxC= 4.57D+02 IAcc=1 IRadAn=         1 AccDes= 1.00D-06
 HarFok:  IExCor= 205 AccDes= 1.00D-06 IRadAn=         1 IDoV=1
 ScaDFX=  1.000000  1.000000  1.000000  1.000000
 Largest valence mixing into a core orbital is  1.75D-04
 Largest core mixing into a valence orbital is  2.59D-05
 Range of M.O.s used for correlation:     2    35
 NBasis=    35 NAE=     5 NBE=     5 NFC=     1 NFV=     0
 NROrb=     34 NOA=     4 NOB=     4 NVA=    30 NVB=    30
 Leave Link  801 at Wed Apr 10 02:54:53 2013, MaxMem=    6291456 cpu:       0.0
 (Enter /soft/g03/g03/l906.exe)
 Frozen-core derivative calculation, NFC=   1 NFV=   0.
 FulOut=F Deriv=T AODrv=T NAtomX=     5
   MMem=         345  MDisk=           4 MDiskD=           4
  W3Min=        6125 MinDsk=       66730 NBas6D=          35
 NBas2D=         669    NTT=         630    LW2=     2040000
    MDV=     6287574 MDiskM=        1871 NBas2p=         519
 Fully direct method using O(ONN) memory.
 IMap=   1   2   3   4   5
 JobTyp=1 Pass  1:  I=   2 to   5 NPSUse=  1 ParTrn=F ParDer=F DoDerP=T.
 Spin components of T(2) and E(2):
     alpha-alpha T2 =       0.4788666718D-02 E2=     -0.1482784847D-01
     alpha-beta  T2 =       0.4085547634D-01 E2=     -0.1332472302D+00
     beta-beta   T2 =       0.4788666718D-02 E2=     -0.1482784847D-01
 The integrals were generated   1 times.
 ANorm=    0.1024906244D+01
 E2 =    -0.1629029271D+00 EUMP2 =    -0.40364605776125D+02
 Leave Link  906 at Wed Apr 10 02:54:53 2013, MaxMem=    6291456 cpu:       0.3
 (Enter /soft/g03/g03/l1002.exe)
 Minotr:  Closed-shell wavefunction.
          Computing MP2 derivatives.
          Using Z-Vector for PSCF gradient.
          Skipping F1 and S1 gradient terms here.
 DoAtom=TTTTT
          Frozen-core window.
          Direct CPHF calculation.
          Solving linear equations simultaneously.
          Differentiating once with respect to electric field.
                with respect to dipole field.
          Differentiating once with respect to nuclear coordinates.
          Using symmetry in CPHF.
          Requested convergence is 1.0D-10 RMS, and 1.0D-09 maximum.
          Secondary convergence is 1.0D-12 RMS, and 1.0D-12 maximum.
          NewPWx=F KeepS1=T KeepF1=T KeepIn=T MapXYZ=F.
          MDV=       6291409 using IRadAn=       0.
          Store integrals in memory, NReq=     1019329.
 Symmetry not used in FoFDir.
 MinBra= 0 MaxBra= 2 Meth= 1.
 IRaf=       0 NMat=   1 IRICut=       1 DoRegI=T DoRafI=F ISym2E= 0 JSym2E=0.
          There are   1 degrees of freedom in the 1st order CPHF.
     1 vectors were produced by pass  0.
 AX will form   1 AO Fock derivatives at one time.
     1 vectors were produced by pass  1.
     1 vectors were produced by pass  2.
     1 vectors were produced by pass  3.
     1 vectors were produced by pass  4.
     1 vectors were produced by pass  5.
     1 vectors were produced by pass  6.
 Inv2:  IOpt= 1 Iter= 1 AM= 3.29D-16 Conv= 1.00D-12.
 Inverted reduced A of dimension    7 with in-core refinement.
 End of Minotr Frequency-dependent properties file   721 does not exist.
 Leave Link 1002 at Wed Apr 10 02:54:53 2013, MaxMem=    6291456 cpu:       0.1
 (Enter /soft/g03/g03/l601.exe)
 Copying SCF densities to generalized density rwf, ISCF=0 IROHF=0.

 **********************************************************************

            Population analysis using the SCF density.

 **********************************************************************

 Orbital symmetries:
       Occupied  (A1) (A1) (E) (E) (A1)
       Virtual   (A1) (A1) (E) (E) (A1) (E) (E) (A1) (E) (E) (A1)
                 (A1) (E) (E) (A2) (E) (E) (E) (E) (A1) (A1) (E)
                 (E) (E) (E) (A1) (E) (E) (A1) (A1)
 The electronic state is 1-A1.
 Alpha  occ. eigenvalues --  -11.20544  -0.94496  -0.54506  -0.54506  -0.54505
 Alpha virt. eigenvalues --    0.25719   0.32805   0.32805   0.32805   0.72552
 Alpha virt. eigenvalues --    0.72553   0.72553   1.14517   1.14518   1.14518
 Alpha virt. eigenvalues --    1.21532   1.31634   1.62933   1.62933   2.35448
 Alpha virt. eigenvalues --    2.35450   2.35450   2.37946   2.37946   2.37951
 Alpha virt. eigenvalues --    2.96614   2.96624   2.96624   3.27031   3.27031
 Alpha virt. eigenvalues --    3.50490   3.81472   3.81472   3.81474   4.84298
     Molecular Orbital Coefficients
                           1         2         3         4         5
                        (A1)--O   (A1)--O   (E)--O    (E)--O    (A1)--O
     EIGENVALUES --   -11.20544  -0.94496  -0.54506  -0.54506  -0.54505
   1 1   C  1S          0.99568  -0.19520   0.00000   0.00000  -0.00001
   2        2S          0.02816   0.36479   0.00000   0.00000   0.00001
   3        2PX         0.00000   0.00000   0.42990   0.00000   0.00000
   4        2PY         0.00000   0.00000   0.00000   0.42990   0.00000
   5        2PZ         0.00000  -0.00001   0.00000   0.00000   0.42990
   6        3S         -0.01331   0.34561   0.00000   0.00000   0.00001
   7        3PX         0.00000   0.00000   0.21220   0.00000   0.00000
   8        3PY         0.00000   0.00000   0.00000   0.21220   0.00000
   9        3PZ         0.00000   0.00000   0.00000   0.00000   0.21221
  10        4XX        -0.00180  -0.00121   0.00000  -0.02115   0.01496
  11        4YY        -0.00180  -0.00121   0.00000   0.02115   0.01496
  12        4ZZ        -0.00180  -0.00121   0.00000   0.00000  -0.02991
  13        4XY         0.00000   0.00000  -0.02442   0.00000   0.00000
  14        4XZ         0.00000   0.00000   0.01727   0.00000   0.00000
  15        4YZ         0.00000   0.00000   0.00000   0.01727   0.00000
  16 2   H  1S         -0.00003   0.13821   0.00000   0.00000  -0.29488
  17        2S          0.00244   0.04441   0.00000   0.00000  -0.25822
  18        3PX         0.00000   0.00000   0.00704   0.00000   0.00000
  19        3PY         0.00000   0.00000   0.00000   0.00704   0.00000
  20        3PZ        -0.00018   0.01335   0.00000   0.00000  -0.01247
  21 3   H  1S         -0.00003   0.13821   0.00000   0.27801   0.09829
  22        2S          0.00244   0.04441   0.00000   0.24344   0.08608
  23        3PX         0.00000   0.00000   0.00704   0.00000   0.00000
  24        3PY         0.00017  -0.01258   0.00000  -0.01031  -0.00613
  25        3PZ         0.00006  -0.00445   0.00000  -0.00613   0.00487
  26 4   H  1S         -0.00003   0.13821  -0.24077  -0.13901   0.09829
  27        2S          0.00244   0.04441  -0.21083  -0.12172   0.08608
  28        3PX        -0.00014   0.01090  -0.00597  -0.00751   0.00531
  29        3PY        -0.00008   0.00629  -0.00751   0.00270   0.00307
  30        3PZ         0.00006  -0.00445   0.00531   0.00307   0.00487
  31 5   H  1S         -0.00003   0.13821   0.24077  -0.13901   0.09829
  32        2S          0.00244   0.04441   0.21083  -0.12172   0.08608
  33        3PX         0.00014  -0.01090  -0.00597   0.00751  -0.00531
  34        3PY        -0.00008   0.00629   0.00751   0.00270   0.00307
  35        3PZ         0.00006  -0.00445  -0.00531   0.00307   0.00487
                           6         7         8         9        10
                        (A1)--V   (A1)--V   (E)--V    (E)--V    (A1)--V
     EIGENVALUES --     0.25719   0.32805   0.32805   0.32805   0.72552
   1 1   C  1S         -0.15683   0.00000   0.00000   0.00000   0.00000
   2        2S          0.10122   0.00001   0.00000   0.00000  -0.00003
   3        2PX         0.00000   0.00000   0.29850   0.00000   0.00000
   4        2PY         0.00000   0.00000   0.00000  -0.29850   0.00000
   5        2PZ         0.00000   0.29850   0.00000   0.00000  -0.71468
   6        3S          2.83735  -0.00007   0.00000   0.00000   0.00002
   7        3PX         0.00000   0.00000   1.50661   0.00000   0.00000
   8        3PY         0.00000   0.00000   0.00000  -1.50661   0.00000
   9        3PZ        -0.00006   1.50652   0.00000   0.00000   1.36121
  10        4XX        -0.01134  -0.00460   0.00000  -0.00651  -0.03847
  11        4YY        -0.01134  -0.00460   0.00000   0.00651  -0.03847
  12        4ZZ        -0.01134   0.00921   0.00000   0.00000   0.07693
  13        4XY         0.00000   0.00000   0.00752   0.00000   0.00000
  14        4XZ         0.00000   0.00000  -0.00531   0.00000   0.00000
  15        4YZ         0.00000   0.00000   0.00000   0.00531   0.00000
  16 2   H  1S          0.00586   0.07667   0.00000   0.00000   0.53819
  17        2S         -1.05423   2.02906   0.00000   0.00000   0.11846
  18        3PX         0.00000   0.00000   0.00673   0.00000   0.00000
  19        3PY         0.00000   0.00000   0.00000  -0.00673   0.00000
  20        3PZ        -0.00212   0.00843   0.00000   0.00000   0.04009
  21 3   H  1S          0.00585  -0.02556   0.00000   0.07227  -0.17942
  22        2S         -1.05422  -0.67632   0.00000   1.91306  -0.03946
  23        3PX         0.00000   0.00000   0.00674   0.00000   0.00000
  24        3PY         0.00200   0.00053   0.00000  -0.00824   0.00803
  25        3PZ         0.00071   0.00692   0.00000  -0.00053   0.01737
  26 4   H  1S          0.00585  -0.02556   0.06259  -0.03614  -0.17942
  27        2S         -1.05422  -0.67632   1.65676  -0.95653  -0.03946
  28        3PX        -0.00173  -0.00046   0.00787  -0.00065  -0.00696
  29        3PY        -0.00100  -0.00027   0.00065  -0.00711  -0.00402
  30        3PZ         0.00071   0.00692  -0.00046   0.00027   0.01737
  31 5   H  1S          0.00585  -0.02556  -0.06259  -0.03614  -0.17942
  32        2S         -1.05422  -0.67632  -1.65676  -0.95653  -0.03946
  33        3PX         0.00173   0.00046   0.00787   0.00065   0.00696
  34        3PY        -0.00100  -0.00027  -0.00065  -0.00711  -0.00402
  35        3PZ         0.00071   0.00692   0.00046   0.00027   0.01737
                          11        12        13        14        15
                        (E)--V    (E)--V    (A1)--V   (E)--V    (E)--V
     EIGENVALUES --     0.72553   0.72553   1.14517   1.14518   1.14518
   1 1   C  1S          0.00000   0.00000   0.00002   0.00000   0.00000
   2        2S          0.00000   0.00000  -0.00005   0.00000   0.00000
   3        2PX         0.00000  -0.71468   0.00000   0.00000  -0.80665
   4        2PY        -0.71468   0.00000   0.00000   0.80665   0.00000
   5        2PZ         0.00000   0.00000  -0.80665   0.00000   0.00000
   6        3S          0.00000   0.00000  -0.00003   0.00000   0.00000
   7        3PX         0.00000   1.36134   0.00000   0.00000   1.30199
   8        3PY         1.36134   0.00000   0.00000  -1.30199   0.00000
   9        3PZ         0.00000   0.00000   1.30196   0.00000   0.00000
  10        4XX         0.05440   0.00000   0.13802   0.19519   0.00000
  11        4YY        -0.05440   0.00000   0.13802  -0.19519   0.00000
  12        4ZZ         0.00000   0.00000  -0.27602   0.00000   0.00000
  13        4XY         0.00000   0.06282   0.00000   0.00000  -0.22539
  14        4XZ         0.00000  -0.04441   0.00000   0.00000   0.15935
  15        4YZ        -0.04441   0.00000   0.00000  -0.15935   0.00000
  16 2   H  1S          0.00000   0.00000  -0.80327   0.00000   0.00000
  17        2S          0.00000   0.00000   1.70350   0.00000   0.00000
  18        3PX         0.00000   0.01453   0.00000   0.00000  -0.06049
  19        3PY         0.01453   0.00000   0.00000   0.06049   0.00000
  20        3PZ         0.00000   0.00000   0.13987   0.00000   0.00000
  21 3   H  1S         -0.50742   0.00000   0.26789  -0.75742   0.00000
  22        2S         -0.11181   0.00000  -0.56788   1.60610   0.00000
  23        3PX         0.00000   0.01453   0.00000   0.00000  -0.06049
  24        3PY         0.03725   0.00000   0.06298  -0.11762   0.00000
  25        3PZ         0.00803   0.00000  -0.03823  -0.06297   0.00000
  26 4   H  1S          0.25371   0.43944   0.26789   0.37871  -0.65595
  27        2S          0.05591   0.09683  -0.56788  -0.80305   1.39093
  28        3PX         0.00984   0.03157  -0.05454  -0.07713   0.07309
  29        3PY         0.02021   0.00984  -0.03149   0.01596   0.07713
  30        3PZ        -0.00402  -0.00696  -0.03823   0.03148  -0.05453
  31 5   H  1S          0.25371  -0.43944   0.26789   0.37871   0.65595
  32        2S          0.05591  -0.09683  -0.56788  -0.80305  -1.39093
  33        3PX        -0.00984   0.03157   0.05454   0.07713   0.07309
  34        3PY         0.02021  -0.00984  -0.03149   0.01596  -0.07713
  35        3PZ        -0.00402   0.00696  -0.03823   0.03148   0.05453
                          16        17        18        19        20
                        (A1)--V   (A1)--V   (E)--V    (E)--V    (A2)--V
     EIGENVALUES --     1.21532   1.31634   1.62933   1.62933   2.35448
   1 1   C  1S          0.08162  -0.12356   0.00000   0.00000   0.00000
   2        2S         -1.16162  -1.84215   0.00000   0.00000   0.00000
   3        2PX         0.00000   0.00000   0.00001   0.00000   0.00000
   4        2PY         0.00000   0.00000   0.00000   0.00001   0.00000
   5        2PZ         0.00012  -0.00001   0.00000   0.00000   0.00000
   6        3S          2.09501   5.22755   0.00000   0.00000   0.00000
   7        3PX         0.00000   0.00000  -0.00001   0.00000   0.00000
   8        3PY         0.00000   0.00000   0.00000  -0.00001   0.00000
   9        3PZ        -0.00016  -0.00015   0.00000   0.00000   0.00000
  10        4XX         0.00680  -0.13043   0.00000   0.32987   0.00000
  11        4YY         0.00680  -0.13043   0.00000  -0.32987   0.00000
  12        4ZZ         0.00685  -0.13046   0.00000   0.00000   0.00000
  13        4XY         0.00000   0.00000   0.38090   0.00000   0.00000
  14        4XZ         0.00000   0.00000   0.53874   0.00000   0.00000
  15        4YZ         0.00000   0.00000   0.00000   0.53874   0.00000
  16 2   H  1S          0.54914  -0.40896   0.00000   0.00000   0.00000
  17        2S         -0.70955  -0.92911   0.00000   0.00000   0.00000
  18        3PX         0.00000   0.00000  -0.24808   0.00000   0.00000
  19        3PY         0.00000   0.00000   0.00000  -0.24808   0.00000
  20        3PZ        -0.09478   0.00441   0.00000   0.00000   0.00000
  21 3   H  1S          0.54898  -0.40885   0.00000   0.00000   0.00000
  22        2S         -0.70929  -0.92912   0.00000   0.00001   0.00000
  23        3PX         0.00000   0.00000   0.24805   0.00000   0.58184
  24        3PY         0.08933  -0.00415   0.00000  -0.08268   0.00000
  25        3PZ         0.03159  -0.00148   0.00000   0.23390   0.00000
  26 4   H  1S          0.54898  -0.40885   0.00000   0.00000   0.00000
  27        2S         -0.70929  -0.92912  -0.00001   0.00000   0.00000
  28        3PX        -0.07737   0.00359   0.00000  -0.14321  -0.29092
  29        3PY        -0.04467   0.00207  -0.14321   0.16537   0.50389
  30        3PZ         0.03159  -0.00148  -0.20256  -0.11695   0.00000
  31 5   H  1S          0.54898  -0.40885   0.00000   0.00000   0.00000
  32        2S         -0.70929  -0.92912   0.00001   0.00000   0.00000
  33        3PX         0.07737  -0.00359   0.00000   0.14321  -0.29092
  34        3PY        -0.04467   0.00207   0.14321   0.16537  -0.50389
  35        3PZ         0.03159  -0.00148   0.20256  -0.11695   0.00000
                          21        22        23        24        25
                        (E)--V    (E)--V    (E)--V    (E)--V    (A1)--V
     EIGENVALUES --     2.35450   2.35450   2.37946   2.37946   2.37951
   1 1   C  1S          0.00000   0.00000   0.00000   0.00000   0.00000
   2        2S          0.00000   0.00000   0.00000   0.00000  -0.00004
   3        2PX        -0.00011   0.00000  -0.09420   0.00000   0.00000
   4        2PY         0.00000  -0.00011   0.00000   0.09420   0.00000
   5        2PZ         0.00000   0.00000   0.00000   0.00000   0.09420
   6        3S          0.00000   0.00000   0.00000   0.00000   0.00012
   7        3PX         0.00074   0.00000   0.57466   0.00000   0.00000
   8        3PY         0.00000   0.00074   0.00000  -0.57466   0.00000
   9        3PZ         0.00000   0.00000   0.00000   0.00000  -0.57454
  10        4XX         0.00000  -0.00061   0.00000   0.46589  -0.32942
  11        4YY         0.00000   0.00061   0.00000  -0.46589  -0.32942
  12        4ZZ         0.00000   0.00000   0.00000   0.00000   0.65886
  13        4XY        -0.00070   0.00000  -0.53796   0.00000   0.00000
  14        4XZ         0.00050   0.00000   0.38038   0.00000   0.00000
  15        4YZ         0.00000   0.00050   0.00000  -0.38038   0.00000
  16 2   H  1S          0.00000   0.00000   0.00000   0.00000  -0.61633
  17        2S          0.00000   0.00000   0.00000   0.00000   0.06165
  18        3PX         0.61682   0.00000  -0.26362   0.00000   0.00000
  19        3PY         0.00000   0.61682   0.00000   0.26362   0.00000
  20        3PZ         0.00000   0.00000   0.00000   0.00000   0.36701
  21 3   H  1S          0.00000  -0.00075   0.00000   0.58109   0.20544
  22        2S          0.00000   0.00006   0.00000  -0.05805  -0.02059
  23        3PX        -0.20605   0.00000  -0.26260   0.00000   0.00000
  24        3PY         0.00000  -0.20612   0.00000   0.35514   0.03276
  25        3PZ         0.00000   0.58181   0.00000   0.03348   0.27440
  26 4   H  1S          0.00065   0.00038   0.50324  -0.29054   0.20544
  27        2S         -0.00005  -0.00003  -0.05028   0.02903  -0.02059
  28        3PX        -0.20611  -0.00003  -0.33200   0.04007  -0.02837
  29        3PY        -0.00003  -0.20607  -0.04007   0.28573  -0.01638
  30        3PZ        -0.50386  -0.29090   0.02900  -0.01674   0.27440
  31 5   H  1S         -0.00065   0.00038  -0.50324  -0.29054   0.20544
  32        2S          0.00005  -0.00003   0.05028   0.02903  -0.02059
  33        3PX        -0.20611   0.00003  -0.33200  -0.04007   0.02837
  34        3PY         0.00003  -0.20607   0.04007   0.28573  -0.01638
  35        3PZ         0.50386  -0.29090  -0.02900  -0.01674   0.27440
                          26        27        28        29        30
                        (A1)--V   (E)--V    (E)--V    (E)--V    (E)--V
     EIGENVALUES --     2.96614   2.96624   2.96624   3.27031   3.27031
   1 1   C  1S          0.00000   0.00000   0.00000   0.00000   0.00000
   2        2S          0.00007   0.00000   0.00000   0.00000   0.00000
   3        2PX         0.00000  -0.18699   0.00000   0.00006   0.00000
   4        2PY         0.00000   0.00000  -0.18699   0.00000   0.00006
   5        2PZ         0.18696   0.00000   0.00000   0.00000   0.00000
   6        3S         -0.00013   0.00000   0.00000   0.00000   0.00000
   7        3PX         0.00000  -0.61665   0.00000   0.00003   0.00000
   8        3PY         0.00000   0.00000  -0.61665   0.00000   0.00003
   9        3PZ         0.61658   0.00000   0.00000   0.00000   0.00000
  10        4XX        -0.25295   0.00000  -0.35775   0.00000   0.46459
  11        4YY        -0.25295   0.00000   0.35775   0.00000  -0.46459
  12        4ZZ         0.50594   0.00000   0.00000   0.00000   0.00000
  13        4XY         0.00000  -0.41309   0.00000   0.53646   0.00000
  14        4XZ         0.00000   0.29211   0.00000   0.75881   0.00000
  15        4YZ         0.00000   0.00000   0.29211   0.00000   0.75881
  16 2   H  1S         -0.07075   0.00000   0.00000   0.00000   0.00000
  17        2S          0.51204   0.00000   0.00000   0.00000   0.00000
  18        3PX         0.00000   0.64603   0.00000   0.50954   0.00000
  19        3PY         0.00000   0.00000   0.64603   0.00000   0.50954
  20        3PZ         0.18291   0.00000   0.00000   0.00000   0.00000
  21 3   H  1S          0.02360   0.00000  -0.06669   0.00000  -0.00002
  22        2S         -0.17066   0.00000   0.48282   0.00000  -0.00005
  23        3PX         0.00000   0.64606   0.00000  -0.50952   0.00000
  24        3PY         0.26053   0.00000  -0.09090   0.00000   0.16991
  25        3PZ        -0.55393   0.00000  -0.26054   0.00000  -0.48039
  26 4   H  1S          0.02360   0.05775   0.03334   0.00002   0.00001
  27        2S         -0.17066  -0.41813  -0.24141   0.00005   0.00003
  28        3PX        -0.22563   0.09334  -0.31911   0.00005   0.29420
  29        3PY        -0.13027  -0.31911   0.46182   0.29420  -0.33966
  30        3PZ        -0.55393   0.22563   0.13027   0.41603   0.24020
  31 5   H  1S          0.02360  -0.05775   0.03334  -0.00002   0.00001
  32        2S         -0.17066   0.41813  -0.24141  -0.00005   0.00003
  33        3PX         0.22563   0.09334   0.31911   0.00005  -0.29420
  34        3PY        -0.13027   0.31911   0.46182  -0.29420  -0.33966
  35        3PZ        -0.55393  -0.22563   0.13027  -0.41603   0.24020
                          31        32        33        34        35
                        (A1)--V   (E)--V    (E)--V    (A1)--V   (A1)--V
     EIGENVALUES --     3.50490   3.81472   3.81472   3.81474   4.84298
   1 1   C  1S         -0.12504   0.00000   0.00000  -0.00001  -0.47872
   2        2S          0.96317   0.00000   0.00000   0.00006   2.84549
   3        2PX         0.00000  -0.97499   0.00000   0.00000   0.00000
   4        2PY         0.00000   0.00000   0.97499   0.00000   0.00000
   5        2PZ        -0.00008   0.00000   0.00000   0.97496   0.00002
   6        3S          1.07599   0.00000   0.00000   0.00003   2.12193
   7        3PX         0.00000  -0.50429   0.00000   0.00000   0.00000
   8        3PY         0.00000   0.00000   0.50429   0.00000   0.00000
   9        3PZ        -0.00007   0.00000   0.00000   0.50430  -0.00005
  10        4XX        -0.03028   0.00000  -0.84481   0.59732  -2.05195
  11        4YY        -0.03028   0.00000   0.84481   0.59732  -2.05195
  12        4ZZ        -0.03035   0.00000   0.00000  -1.19469  -2.05188
  13        4XY         0.00000   0.97550   0.00000   0.00000   0.00000
  14        4XZ         0.00000  -0.68961   0.00000   0.00000   0.00000
  15        4YZ         0.00000   0.00000   0.68961   0.00000   0.00000
  16 2   H  1S         -0.28733   0.00000   0.00000   0.87468   0.26323
  17        2S         -0.30375   0.00000   0.00000   0.51197  -0.38520
  18        3PX         0.00000  -0.01487   0.00000   0.00000   0.00000
  19        3PY         0.00000   0.00000   0.01487   0.00000   0.00000
  20        3PZ        -0.66211   0.00000   0.00000   1.22571   0.30176
  21 3   H  1S         -0.28730   0.00000  -0.82465  -0.29157   0.26326
  22        2S         -0.30369   0.00000  -0.48268  -0.17066  -0.38518
  23        3PX         0.00000  -0.01498   0.00000   0.00000   0.00000
  24        3PY         0.62419   0.00000   1.09120   0.38055  -0.28452
  25        3PZ         0.22069   0.00000   0.38048   0.14942  -0.10059
  26 4   H  1S         -0.28730  -0.71417   0.41233  -0.29157   0.26326
  27        2S         -0.30369  -0.41802   0.24134  -0.17066  -0.38518
  28        3PX        -0.54056  -0.82214   0.46601  -0.32957   0.24641
  29        3PY        -0.31209  -0.46601   0.28404  -0.19028   0.14226
  30        3PZ         0.22069   0.32950  -0.19024   0.14942  -0.10059
  31 5   H  1S         -0.28730   0.71417   0.41233  -0.29157   0.26326
  32        2S         -0.30369   0.41802   0.24134  -0.17066  -0.38518
  33        3PX         0.54056  -0.82214  -0.46601   0.32957  -0.24641
  34        3PY        -0.31209   0.46601   0.28404  -0.19028   0.14226
  35        3PZ         0.22069  -0.32950  -0.19024   0.14942  -0.10059
      DENSITY MATRIX.
                           1         2         3         4         5
   1 1   C  1S          2.05897
   2        2S         -0.08634   0.26772
   3        2PX         0.00000   0.00000   0.36963
   4        2PY         0.00000   0.00000   0.00000   0.36963
   5        2PZ         0.00000   0.00000   0.00000   0.00000   0.36963
   6        3S         -0.16143   0.25140   0.00000   0.00000   0.00000
   7        3PX         0.00000   0.00000   0.18245   0.00000   0.00000
   8        3PY         0.00000   0.00000   0.00000   0.18245   0.00000
   9        3PZ         0.00000   0.00000   0.00000   0.00000   0.18246
  10        4XX        -0.00310  -0.00098   0.00000  -0.01819   0.01286
  11        4YY        -0.00310  -0.00098   0.00000   0.01819   0.01286
  12        4ZZ        -0.00310  -0.00099   0.00000   0.00000  -0.02572
  13        4XY         0.00000   0.00000  -0.02100   0.00000   0.00000
  14        4XZ         0.00000   0.00000   0.01485   0.00000   0.00000
  15        4YZ         0.00000   0.00000   0.00000   0.01485   0.00000
  16 2   H  1S         -0.05401   0.10083   0.00000   0.00000  -0.25354
  17        2S         -0.01248   0.03253   0.00000   0.00000  -0.22202
  18        3PX         0.00000   0.00000   0.00606   0.00000   0.00000
  19        3PY         0.00000   0.00000   0.00000   0.00606   0.00000
  20        3PZ        -0.00556   0.00973   0.00000   0.00000  -0.01073
  21 3   H  1S         -0.05401   0.10084   0.00000   0.23904   0.08451
  22        2S         -0.01249   0.03254   0.00000   0.20931   0.07401
  23        3PX         0.00000   0.00000   0.00605   0.00000   0.00000
  24        3PY         0.00524  -0.00917   0.00000  -0.00886  -0.00527
  25        3PZ         0.00185  -0.00324   0.00000  -0.00527   0.00419
  26 4   H  1S         -0.05401   0.10084  -0.20701  -0.11952   0.08451
  27        2S         -0.01249   0.03254  -0.18127  -0.10466   0.07401
  28        3PX        -0.00454   0.00794  -0.00513  -0.00646   0.00457
  29        3PY        -0.00262   0.00459  -0.00646   0.00233   0.00264
  30        3PZ         0.00185  -0.00324   0.00457   0.00264   0.00419
  31 5   H  1S         -0.05401   0.10084   0.20701  -0.11952   0.08451
  32        2S         -0.01249   0.03254   0.18127  -0.10466   0.07401
  33        3PX         0.00454  -0.00794  -0.00513   0.00646  -0.00457
  34        3PY        -0.00262   0.00459   0.00646   0.00233   0.00264
  35        3PZ         0.00185  -0.00324  -0.00457   0.00264   0.00419
                           6         7         8         9        10
   6        3S          0.23925
   7        3PX         0.00000   0.09006
   8        3PY         0.00000   0.00000   0.09006
   9        3PZ         0.00000   0.00000   0.00000   0.09007
  10        4XX        -0.00079   0.00000  -0.00898   0.00635   0.00135
  11        4YY        -0.00079   0.00000   0.00898   0.00635  -0.00044
  12        4ZZ        -0.00079   0.00000   0.00000  -0.01270  -0.00089
  13        4XY         0.00000  -0.01037   0.00000   0.00000   0.00000
  14        4XZ         0.00000   0.00733   0.00000   0.00000   0.00000
  15        4YZ         0.00000   0.00000   0.00733   0.00000  -0.00073
  16 2   H  1S          0.09553   0.00000   0.00000  -0.12515  -0.00916
  17        2S          0.03063   0.00000   0.00000  -0.10959  -0.00784
  18        3PX         0.00000   0.00299   0.00000   0.00000   0.00000
  19        3PY         0.00000   0.00000   0.00299   0.00000  -0.00030
  20        3PZ         0.00923   0.00000   0.00000  -0.00529  -0.00040
  21 3   H  1S          0.09554   0.00000   0.11799   0.04172  -0.00916
  22        2S          0.03063   0.00000   0.10332   0.03653  -0.00784
  23        3PX         0.00000   0.00299   0.00000   0.00000   0.00000
  24        3PY        -0.00870   0.00000  -0.00437  -0.00260   0.00028
  25        3PZ        -0.00308   0.00000  -0.00260   0.00207   0.00042
  26 4   H  1S          0.09554  -0.10218  -0.05900   0.04172   0.00849
  27        2S          0.03063  -0.08948  -0.05166   0.03653   0.00761
  28        3PX         0.00754  -0.00253  -0.00319   0.00225   0.00045
  29        3PY         0.00435  -0.00319   0.00115   0.00130  -0.00004
  30        3PZ        -0.00308   0.00225   0.00130   0.00207   0.00003
  31 5   H  1S          0.09554   0.10218  -0.05900   0.04172   0.00849
  32        2S          0.03063   0.08948  -0.05166   0.03653   0.00761
  33        3PX        -0.00754  -0.00253   0.00319  -0.00225  -0.00045
  34        3PY         0.00435   0.00319   0.00115   0.00130  -0.00004
  35        3PZ        -0.00308  -0.00225   0.00130   0.00207   0.00003
                          11        12        13        14        15
  11        4YY         0.00135
  12        4ZZ        -0.00089   0.00180
  13        4XY         0.00000   0.00000   0.00119
  14        4XZ         0.00000   0.00000  -0.00084   0.00060
  15        4YZ         0.00073   0.00000   0.00000   0.00000   0.00060
  16 2   H  1S         -0.00916   0.01731   0.00000   0.00000   0.00000
  17        2S         -0.00784   0.01533   0.00000   0.00000   0.00000
  18        3PX         0.00000   0.00000  -0.00034   0.00024   0.00000
  19        3PY         0.00030   0.00000   0.00000   0.00000   0.00024
  20        3PZ        -0.00040   0.00071   0.00000   0.00000   0.00000
  21 3   H  1S          0.01437  -0.00622   0.00000   0.00000   0.00960
  22        2S          0.01276  -0.00527   0.00000   0.00000   0.00841
  23        3PX         0.00000   0.00000  -0.00034   0.00024   0.00000
  24        3PY        -0.00059   0.00040   0.00000   0.00000  -0.00036
  25        3PZ        -0.00010  -0.00028   0.00000   0.00000  -0.00021
  26 4   H  1S         -0.00327  -0.00622   0.01176  -0.00831  -0.00480
  27        2S         -0.00269  -0.00527   0.01030  -0.00728  -0.00420
  28        3PX        -0.00018  -0.00034   0.00029  -0.00021  -0.00026
  29        3PY         0.00019  -0.00020   0.00037  -0.00026   0.00009
  30        3PZ         0.00029  -0.00028  -0.00026   0.00018   0.00011
  31 5   H  1S         -0.00327  -0.00622  -0.01176   0.00831  -0.00480
  32        2S         -0.00269  -0.00527  -0.01030   0.00728  -0.00420
  33        3PX         0.00018   0.00034   0.00029  -0.00021   0.00026
  34        3PY         0.00019  -0.00020  -0.00037   0.00026   0.00009
  35        3PZ         0.00029  -0.00028   0.00026  -0.00018   0.00011
                          16        17        18        19        20
  16 2   H  1S          0.21211
  17        2S          0.16456   0.13731
  18        3PX         0.00000   0.00000   0.00010
  19        3PY         0.00000   0.00000   0.00000   0.00010
  20        3PZ         0.01105   0.00763   0.00000   0.00000   0.00067
  21 3   H  1S         -0.01976  -0.03849   0.00000   0.00392   0.00124
  22        2S         -0.03849  -0.04050   0.00000   0.00343  -0.00096
  23        3PX         0.00000   0.00000   0.00010   0.00000   0.00000
  24        3PY         0.00014   0.00205   0.00000  -0.00015  -0.00018
  25        3PZ        -0.00410  -0.00291   0.00000  -0.00009  -0.00024
  26 4   H  1S         -0.01976  -0.03849  -0.00339  -0.00196   0.00124
  27        2S         -0.03849  -0.04050  -0.00297  -0.00171  -0.00096
  28        3PX        -0.00012  -0.00178  -0.00008  -0.00011   0.00016
  29        3PY        -0.00007  -0.00103  -0.00011   0.00004   0.00009
  30        3PZ        -0.00410  -0.00291   0.00007   0.00004  -0.00024
  31 5   H  1S         -0.01976  -0.03849   0.00339  -0.00196   0.00124
  32        2S         -0.03849  -0.04050   0.00297  -0.00171  -0.00096
  33        3PX         0.00012   0.00178  -0.00008   0.00011  -0.00016
  34        3PY        -0.00007  -0.00103   0.00011   0.00004   0.00009
  35        3PZ        -0.00410  -0.00291  -0.00007   0.00004  -0.00024
                          21        22        23        24        25
  21 3   H  1S          0.21211
  22        2S          0.16456   0.13730
  23        3PX         0.00000   0.00000   0.00010
  24        3PY        -0.01042  -0.00719   0.00000   0.00060
  25        3PZ        -0.00368  -0.00254   0.00000   0.00018   0.00016
  26 4   H  1S         -0.01976  -0.03848  -0.00339  -0.00182   0.00143
  27        2S         -0.03848  -0.04049  -0.00297   0.00034   0.00194
  28        3PX        -0.00012  -0.00178  -0.00008  -0.00018   0.00005
  29        3PY         0.00385   0.00240  -0.00011  -0.00025  -0.00006
  30        3PZ         0.00143   0.00194   0.00007  -0.00001   0.00005
  31 5   H  1S         -0.01976  -0.03848   0.00339  -0.00182   0.00143
  32        2S         -0.03848  -0.04049   0.00297   0.00034   0.00194
  33        3PX         0.00012   0.00178  -0.00008   0.00018  -0.00005
  34        3PY         0.00385   0.00240   0.00011  -0.00025  -0.00006
  35        3PZ         0.00143   0.00194  -0.00007  -0.00001   0.00005
                          26        27        28        29        30
  26 4   H  1S          0.21211
  27        2S          0.16456   0.13730
  28        3PX         0.00902   0.00623   0.00048
  29        3PY         0.00521   0.00360   0.00022   0.00023
  30        3PZ        -0.00368  -0.00254  -0.00015  -0.00009   0.00016
  31 5   H  1S         -0.01976  -0.03848   0.00327  -0.00203   0.00143
  32        2S         -0.03848  -0.04049   0.00119  -0.00274   0.00194
  33        3PX        -0.00327  -0.00119  -0.00034  -0.00004   0.00003
  34        3PY        -0.00203  -0.00274   0.00004   0.00000   0.00007
  35        3PZ         0.00143   0.00194  -0.00003   0.00007   0.00005
                          31        32        33        34        35
  31 5   H  1S          0.21211
  32        2S          0.16456   0.13730
  33        3PX        -0.00902  -0.00623   0.00048
  34        3PY         0.00521   0.00360  -0.00022   0.00023
  35        3PZ        -0.00368  -0.00254   0.00015  -0.00009   0.00016
    Full Mulliken population analysis:
                           1         2         3         4         5
   1 1   C  1S          2.05897
   2        2S         -0.01891   0.26772
   3        2PX         0.00000   0.00000   0.36963
   4        2PY         0.00000   0.00000   0.00000   0.36963
   5        2PZ         0.00000   0.00000   0.00000   0.00000   0.36963
   6        3S         -0.02974   0.20421   0.00000   0.00000   0.00000
   7        3PX         0.00000   0.00000   0.10395   0.00000   0.00000
   8        3PY         0.00000   0.00000   0.00000   0.10395   0.00000
   9        3PZ         0.00000   0.00000   0.00000   0.00000   0.10396
  10        4XX        -0.00025  -0.00070   0.00000   0.00000   0.00000
  11        4YY        -0.00025  -0.00070   0.00000   0.00000   0.00000
  12        4ZZ        -0.00025  -0.00070   0.00000   0.00000   0.00000
  13        4XY         0.00000   0.00000   0.00000   0.00000   0.00000
  14        4XZ         0.00000   0.00000   0.00000   0.00000   0.00000
  15        4YZ         0.00000   0.00000   0.00000   0.00000   0.00000
  16 2   H  1S         -0.00183   0.02806   0.00000   0.00000   0.09482
  17        2S         -0.00116   0.01560   0.00000   0.00000   0.05903
  18        3PX         0.00000   0.00000   0.00094   0.00000   0.00000
  19        3PY         0.00000   0.00000   0.00000   0.00094   0.00000
  20        3PZ        -0.00027   0.00288   0.00000   0.00000   0.00391
  21 3   H  1S         -0.00183   0.02806   0.00000   0.08428   0.01053
  22        2S         -0.00116   0.01560   0.00000   0.05247   0.00656
  23        3PX         0.00000   0.00000   0.00094   0.00000   0.00000
  24        3PY        -0.00024   0.00256   0.00000   0.00272   0.00086
  25        3PZ        -0.00003   0.00032   0.00000   0.00086   0.00041
  26 4   H  1S         -0.00183   0.02806   0.06321   0.02107   0.01053
  27        2S         -0.00116   0.01560   0.03935   0.01312   0.00656
  28        3PX        -0.00018   0.00192   0.00098   0.00129   0.00065
  29        3PY        -0.00006   0.00064   0.00129   0.00009   0.00022
  30        3PZ        -0.00003   0.00032   0.00065   0.00022   0.00041
  31 5   H  1S         -0.00183   0.02806   0.06321   0.02107   0.01053
  32        2S         -0.00116   0.01560   0.03935   0.01312   0.00656
  33        3PX        -0.00018   0.00192   0.00098   0.00129   0.00065
  34        3PY        -0.00006   0.00064   0.00129   0.00009   0.00022
  35        3PZ        -0.00003   0.00032   0.00065   0.00022   0.00041
                           6         7         8         9        10
   6        3S          0.23925
   7        3PX         0.00000   0.09006
   8        3PY         0.00000   0.00000   0.09006
   9        3PZ         0.00000   0.00000   0.00000   0.09007
  10        4XX        -0.00050   0.00000   0.00000   0.00000   0.00135
  11        4YY        -0.00050   0.00000   0.00000   0.00000  -0.00015
  12        4ZZ        -0.00050   0.00000   0.00000   0.00000  -0.00030
  13        4XY         0.00000   0.00000   0.00000   0.00000   0.00000
  14        4XZ         0.00000   0.00000   0.00000   0.00000   0.00000
  15        4YZ         0.00000   0.00000   0.00000   0.00000   0.00000
  16 2   H  1S          0.03630   0.00000   0.00000   0.06452  -0.00110
  17        2S          0.02168   0.00000   0.00000   0.06372  -0.00278
  18        3PX         0.00000   0.00062   0.00000   0.00000   0.00000
  19        3PY         0.00000   0.00000   0.00062   0.00000   0.00000
  20        3PZ         0.00160   0.00000   0.00000   0.00025  -0.00005
  21 3   H  1S          0.03630   0.00000   0.05735   0.00717  -0.00110
  22        2S          0.02168   0.00000   0.05664   0.00708  -0.00278
  23        3PX         0.00000   0.00062   0.00000   0.00000   0.00000
  24        3PY         0.00142   0.00000   0.00008   0.00021  -0.00003
  25        3PZ         0.00018   0.00000   0.00021   0.00037  -0.00002
  26 4   H  1S          0.03630   0.04301   0.01434   0.00717   0.00295
  27        2S          0.02168   0.04248   0.01416   0.00708   0.00310
  28        3PX         0.00107  -0.00010   0.00031   0.00015   0.00008
  29        3PY         0.00036   0.00031   0.00017   0.00005  -0.00001
  30        3PZ         0.00018   0.00015   0.00005   0.00037  -0.00001
  31 5   H  1S          0.03630   0.04301   0.01434   0.00717   0.00295
  32        2S          0.02168   0.04248   0.01416   0.00708   0.00310
  33        3PX         0.00107  -0.00010   0.00031   0.00015   0.00008
  34        3PY         0.00036   0.00031   0.00017   0.00005  -0.00001
  35        3PZ         0.00018   0.00015   0.00005   0.00037  -0.00001
                          11        12        13        14        15
  11        4YY         0.00135
  12        4ZZ        -0.00030   0.00180
  13        4XY         0.00000   0.00000   0.00119
  14        4XZ         0.00000   0.00000   0.00000   0.00060
  15        4YZ         0.00000   0.00000   0.00000   0.00000   0.00060
  16 2   H  1S         -0.00110   0.00799   0.00000   0.00000   0.00000
  17        2S         -0.00278   0.00666   0.00000   0.00000   0.00000
  18        3PX         0.00000   0.00000   0.00000  -0.00007   0.00000
  19        3PY         0.00000   0.00000   0.00000   0.00000  -0.00007
  20        3PZ        -0.00005   0.00032   0.00000   0.00000   0.00000
  21 3   H  1S          0.00609  -0.00098   0.00000   0.00000   0.00179
  22        2S          0.00542  -0.00191   0.00000   0.00000   0.00037
  23        3PX         0.00000   0.00000  -0.00010   0.00002   0.00000
  24        3PY         0.00021  -0.00007   0.00000   0.00000   0.00009
  25        3PZ         0.00002  -0.00001   0.00000   0.00000  -0.00003
  26 4   H  1S         -0.00064  -0.00098   0.00268   0.00134   0.00045
  27        2S         -0.00100  -0.00191   0.00055   0.00028   0.00009
  28        3PX        -0.00004  -0.00006   0.00006   0.00003   0.00004
  29        3PY        -0.00001  -0.00002  -0.00001   0.00004   0.00000
  30        3PZ        -0.00003  -0.00001   0.00004  -0.00003  -0.00001
  31 5   H  1S         -0.00064  -0.00098   0.00268   0.00134   0.00045
  32        2S         -0.00100  -0.00191   0.00055   0.00028   0.00009
  33        3PX        -0.00004  -0.00006   0.00006   0.00003   0.00004
  34        3PY        -0.00001  -0.00002  -0.00001   0.00004   0.00000
  35        3PZ        -0.00003  -0.00001   0.00004  -0.00003  -0.00001
                          16        17        18        19        20
  16 2   H  1S          0.21211
  17        2S          0.10833   0.13731
  18        3PX         0.00000   0.00000   0.00010
  19        3PY         0.00000   0.00000   0.00000   0.00010
  20        3PZ         0.00000   0.00000   0.00000   0.00000   0.00067
  21 3   H  1S         -0.00038  -0.00586   0.00000   0.00005   0.00002
  22        2S         -0.00586  -0.01646   0.00000   0.00020  -0.00008
  23        3PX         0.00000   0.00000   0.00000   0.00000   0.00000
  24        3PY         0.00000  -0.00012   0.00000   0.00000   0.00000
  25        3PZ         0.00007   0.00024   0.00000   0.00000   0.00000
  26 4   H  1S         -0.00038  -0.00586   0.00004   0.00001   0.00002
  27        2S         -0.00586  -0.01646   0.00015   0.00005  -0.00008
  28        3PX         0.00000  -0.00009   0.00000   0.00000   0.00000
  29        3PY         0.00000  -0.00003   0.00000   0.00000   0.00000
  30        3PZ         0.00007   0.00024   0.00000   0.00000   0.00000
  31 5   H  1S         -0.00038  -0.00586   0.00004   0.00001   0.00002
  32        2S         -0.00586  -0.01646   0.00015   0.00005  -0.00008
  33        3PX         0.00000  -0.00009   0.00000   0.00000   0.00000
  34        3PY         0.00000  -0.00003   0.00000   0.00000   0.00000
  35        3PZ         0.00007   0.00024   0.00000   0.00000   0.00000
                          21        22        23        24        25
  21 3   H  1S          0.21211
  22        2S          0.10833   0.13730
  23        3PX         0.00000   0.00000   0.00010
  24        3PY         0.00000   0.00000   0.00000   0.00060
  25        3PZ         0.00000   0.00000   0.00000   0.00000   0.00016
  26 4   H  1S         -0.00038  -0.00585   0.00004   0.00003   0.00000
  27        2S         -0.00585  -0.01646   0.00015  -0.00003   0.00000
  28        3PX         0.00000  -0.00009   0.00000   0.00000   0.00000
  29        3PY         0.00007   0.00021   0.00000   0.00000   0.00000
  30        3PZ         0.00000   0.00000   0.00000   0.00000   0.00000
  31 5   H  1S         -0.00038  -0.00585   0.00004   0.00003   0.00000
  32        2S         -0.00585  -0.01646   0.00015  -0.00003   0.00000
  33        3PX         0.00000  -0.00009   0.00000   0.00000   0.00000
  34        3PY         0.00007   0.00021   0.00000   0.00000   0.00000
  35        3PZ         0.00000   0.00000   0.00000   0.00000   0.00000
                          26        27        28        29        30
  26 4   H  1S          0.21211
  27        2S          0.10833   0.13730
  28        3PX         0.00000   0.00000   0.00048
  29        3PY         0.00000   0.00000   0.00000   0.00023
  30        3PZ         0.00000   0.00000   0.00000   0.00000   0.00016
  31 5   H  1S         -0.00038  -0.00585   0.00007   0.00000   0.00000
  32        2S         -0.00585  -0.01646   0.00012   0.00000   0.00000
  33        3PX         0.00007   0.00012   0.00001   0.00000   0.00000
  34        3PY         0.00000   0.00000   0.00000   0.00000   0.00000
  35        3PZ         0.00000   0.00000   0.00000   0.00000   0.00000
                          31        32        33        34        35
  31 5   H  1S          0.21211
  32        2S          0.10833   0.13730
  33        3PX         0.00000   0.00000   0.00048
  34        3PY         0.00000   0.00000   0.00000   0.00023
  35        3PZ         0.00000   0.00000   0.00000   0.00000   0.00016
     Gross orbital populations:
                           1
   1 1   C  1S          1.99656
   2        2S          0.63709
   3        2PX         0.68644
   4        2PY         0.68644
   5        2PZ         0.68644
   6        3S          0.65054
   7        3PX         0.36697
   8        3PY         0.36697
   9        3PZ         0.36697
  10        4XX         0.00386
  11        4YY         0.00386
  12        4ZZ         0.00579
  13        4XY         0.00774
  14        4XZ         0.00387
  15        4YZ         0.00387
  16 2   H  1S          0.52961
  17        2S          0.33902
  18        3PX         0.00196
  19        3PY         0.00196
  20        3PZ         0.00910
  21 3   H  1S          0.52960
  22        2S          0.33902
  23        3PX         0.00196
  24        3PY         0.00830
  25        3PZ         0.00276
  26 4   H  1S          0.52960
  27        2S          0.33902
  28        3PX         0.00672
  29        3PY         0.00355
  30        3PZ         0.00276
  31 5   H  1S          0.52960
  32        2S          0.33902
  33        3PX         0.00672
  34        3PY         0.00355
  35        3PZ         0.00276
          Condensed to atoms (all electrons):
              1          2          3          4          5
     1  C    4.876602   0.399196   0.399198   0.399198   0.399198
     2  H    0.399196   0.566947  -0.028163  -0.028163  -0.028163
     3  H    0.399198  -0.028163   0.566930  -0.028157  -0.028157
     4  H    0.399198  -0.028163  -0.028157   0.566930  -0.028157
     5  H    0.399198  -0.028163  -0.028157  -0.028157   0.566930
 Mulliken atomic charges:
              1
     1  C   -0.473394
     2  H    0.118345
     3  H    0.118350
     4  H    0.118350
     5  H    0.118350
 Sum of Mulliken charges=   0.00000
 Atomic charges with hydrogens summed into heavy atoms:
              1
     1  C    0.000000
     2  H    0.000000
     3  H    0.000000
     4  H    0.000000
     5  H    0.000000
 Sum of Mulliken charges=   0.00000
 Electronic spatial extent (au):  <R**2>=    35.3815
 Charge=     0.0000 electrons
 Dipole moment (field-independent basis, Debye):
    X=     0.0000    Y=     0.0000    Z=     0.0000  Tot=     0.0000
 Quadrupole moment (field-independent basis, Debye-Ang):
   XX=    -8.3557   YY=    -8.3557   ZZ=    -8.3559
   XY=     0.0000   XZ=     0.0000   YZ=     0.0000
 Traceless Quadrupole moment (field-independent basis, Debye-Ang):
   XX=     0.0001   YY=     0.0001   ZZ=    -0.0002
   XY=     0.0000   XZ=     0.0000   YZ=     0.0000
 Octapole moment (field-independent basis, Debye-Ang**2):
  XXX=     0.0000  YYY=     0.5292  ZZZ=    -0.7483  XYY=     0.0000
  XXY=    -0.5292  XXZ=     0.3741  XZZ=     0.0000  YZZ=     0.0000
  YYZ=     0.3741  XYZ=     0.0000
 Hexadecapole moment (field-independent basis, Debye-Ang**3):
 XXXX=   -15.2389 YYYY=   -15.2389 ZZZZ=   -15.0098 XXXY=     0.0000
 XXXZ=     0.0000 YYYX=     0.0000 YYYZ=     0.3238 ZZZX=     0.0000
 ZZZY=     0.0000 XXYY=    -5.0796 XXZZ=    -5.3086 YYZZ=    -5.3086
 XXYZ=    -0.3238 YYXZ=     0.0000 ZZXY=     0.0000
 N-N= 1.352597569326D+01 E-N=-1.200710810427D+02  KE= 4.018687709582D+01
 Symmetry A'   KE= 3.828376611667D+01
 Symmetry A"   KE= 1.903110979155D+00
 Orbital energies and kinetic energies (alpha):
                           1         2
       1  (A1)--O     -11.20544  16.00228
       2  (A1)--O      -0.94496   1.23649
       3  (E)--O       -0.54506   0.95156
       4  (E)--O       -0.54506   0.95156
       5  (A1)--O      -0.54505   0.95156
       6  (A1)--V       0.25719   0.85902
       7  (A1)--V       0.32805   0.72551
       8  (E)--V        0.32805   0.72551
       9  (E)--V        0.32805   0.72551
      10  (A1)--V       0.72552   1.54951
      11  (E)--V        0.72553   1.54951
      12  (E)--V        0.72553   1.54951
      13  (A1)--V       1.14517   2.52813
      14  (E)--V        1.14518   2.52815
      15  (E)--V        1.14518   2.52815
      16  (A1)--V       1.21532   2.75288
      17  (A1)--V       1.31634   1.84922
      18  (E)--V        1.62933   2.34517
      19  (E)--V        1.62933   2.34517
      20  (A2)--V       2.35448   2.84077
      21  (E)--V        2.35450   2.84079
      22  (E)--V        2.35450   2.84079
      23  (E)--V        2.37946   3.14950
      24  (E)--V        2.37946   3.14950
      25  (A1)--V       2.37951   3.14955
      26  (A1)--V       2.96614   3.54893
      27  (E)--V        2.96624   3.54905
      28  (E)--V        2.96624   3.54905
      29  (E)--V        3.27031   3.92182
      30  (E)--V        3.27031   3.92182
      31  (A1)--V       3.50490   4.74874
      32  (E)--V        3.81472   5.16834
      33  (E)--V        3.81472   5.16834
      34  (A1)--V       3.81474   5.16833
      35  (A1)--V       4.84298   9.93086
 Total kinetic energy from orbitals= 4.018687709582D+01
 No NMR shielding tensors so no spin-rotation constants.
 Leave Link  601 at Wed Apr 10 02:54:54 2013, MaxMem=    6291456 cpu:       0.1
 (Enter /soft/g03/g03/l701.exe)
 Compute integral first derivatives.
 ... and contract with generalized density number  2.
 Leave Link  701 at Wed Apr 10 02:54:54 2013, MaxMem=    6291456 cpu:       0.1
 (Enter /soft/g03/g03/l702.exe)
 L702 exits ... SP integral derivatives will be done elsewhere.
 Leave Link  702 at Wed Apr 10 02:54:54 2013, MaxMem=    6291456 cpu:       0.0
 (Enter /soft/g03/g03/l703.exe)
 Compute integral first derivatives, UseDBF=F.
 Integral derivatives from FoFDir, PRISM(SPDF).
 Use density number 2.
 Petite list used in FoFDir.
 MinBra= 0 MaxBra= 2 Meth= 1.
 IRaf=       0 NMat=   1 IRICut=       1 DoRegI=T DoRafI=F ISym2E= 1 JSym2E=1.
 Leave Link  703 at Wed Apr 10 02:54:54 2013, MaxMem=    6291456 cpu:       0.1
 (Enter /soft/g03/g03/l716.exe)
 Use density number 2.
 Dipole        = 6.66133815D-16 5.12923037D-14-1.70966936D-05
 ***** Axes restored to original set *****
 -------------------------------------------------------------------
 Center     Atomic                   Forces (Hartrees/Bohr)
 Number     Number              X              Y              Z
 -------------------------------------------------------------------
    1          6           0.000000000    0.000000000    0.000013308
    2          1           0.000000000    0.000000000    0.001953294
    3          1           0.001836504    0.000000000   -0.000655534
    4          1          -0.000918252   -0.001590460   -0.000655534
    5          1          -0.000918252    0.001590459   -0.000655534
 -------------------------------------------------------------------
 Cartesian Forces:  Max     0.001953294 RMS     0.001007404
 Leave Link  716 at Wed Apr 10 02:54:54 2013, MaxMem=    6291456 cpu:       0.0
 (Enter /soft/g03/g03/l103.exe)

 GradGradGradGradGradGradGradGradGradGradGradGradGradGradGradGradGradGrad
 Berny optimization.
 Internal  Forces:  Max     0.001953294 RMS     0.001233811
 Search for a local minimum.
 Step number   1 out of a maximum of  20
 All quantities printed in internal units (Hartrees-Bohrs-Radians)
 Second derivative matrix not updated -- first step.
 The second derivative matrix:
                          R1        R2        R3        R4        A1
           R1           0.35670
           R2           0.00000   0.35670
           R3           0.00000   0.00000   0.35670
           R4           0.00000   0.00000   0.00000   0.35670
           A1           0.00000   0.00000   0.00000   0.00000   0.16000
           A2           0.00000   0.00000   0.00000   0.00000   0.00000
           A3           0.00000   0.00000   0.00000   0.00000   0.00000
           A4           0.00000   0.00000   0.00000   0.00000   0.00000
           A5           0.00000   0.00000   0.00000   0.00000   0.00000
           A6           0.00000   0.00000   0.00000   0.00000   0.00000
                          A2        A3        A4        A5        A6
           A2           0.16000
           A3           0.00000   0.16000
           A4           0.00000   0.00000   0.16000
           A5           0.00000   0.00000   0.00000   0.16000
           A6           0.00000   0.00000   0.00000   0.00000   0.16000
     Eigenvalues ---    0.16000   0.16000   0.16000   0.16000   0.16000
     Eigenvalues ---    0.35670   0.35670   0.35670   0.356701000.00000
 RFO step:  Lambda=-4.26777249D-05.
 Linear search not attempted -- first point.
 Iteration  1 RMS(Cart)=  0.00345865 RMS(Int)=  0.00000008
 Iteration  2 RMS(Cart)=  0.00000008 RMS(Int)=  0.00000000
 Variable       Old X    -DE/DX   Delta X   Delta X   Delta X     New X
                                 (Linear)    (Quad)   (Total)
    R1        2.04601   0.00195   0.00000   0.00548   0.00548   2.05148
    R2        2.04601   0.00195   0.00000   0.00547   0.00547   2.05147
    R3        2.04601   0.00195   0.00000   0.00547   0.00547   2.05147
    R4        2.04601   0.00195   0.00000   0.00547   0.00547   2.05147
    A1        1.91059   0.00001   0.00000   0.00004   0.00004   1.91063
    A2        1.91059   0.00001   0.00000   0.00004   0.00004   1.91063
    A3        1.91059   0.00001   0.00000   0.00004   0.00004   1.91063
    A4        1.91068  -0.00001   0.00000  -0.00004  -0.00004   1.91064
    A5        1.91068  -0.00001   0.00000  -0.00004  -0.00004   1.91064
    A6        1.91068  -0.00001   0.00000  -0.00004  -0.00004   1.91064
         Item               Value     Threshold  Converged?
 Maximum Force            0.001953     0.000450     NO 
 RMS     Force            0.001234     0.000300     NO 
 Maximum Displacement     0.005518     0.001800     NO 
 RMS     Displacement     0.003459     0.001200     NO 
 Predicted change in Energy=-2.133886D-05
 GradGradGradGradGradGradGradGradGradGradGradGradGradGradGradGradGradGrad

 Leave Link  103 at Wed Apr 10 02:54:54 2013, MaxMem=    6291456 cpu:       0.0
 (Enter /soft/g03/g03/l202.exe)
                          Input orientation:                          
 ---------------------------------------------------------------------
 Center     Atomic     Atomic              Coordinates (Angstroms)
 Number     Number      Type              X           Y           Z
 ---------------------------------------------------------------------
    1          6             0        0.000000    0.000000    0.000022
    2          1             0        0.000000    0.000000    1.085620
    3          1             0        1.023509    0.000000   -0.361834
    4          1             0       -0.511755   -0.886385   -0.361834
    5          1             0       -0.511755    0.886385   -0.361834
 ---------------------------------------------------------------------
                    Distance matrix (angstroms):
                    1          2          3          4          5
     1  C    0.000000
     2  H    1.085597   0.000000
     3  H    1.085593   1.772764   0.000000
     4  H    1.085593   1.772764   1.772770   0.000000
     5  H    1.085593   1.772764   1.772770   1.772770   0.000000
 Stoichiometry    CH4
 Framework group  C3V[C3(HC),3SGV(H)]
 Deg. of freedom     3
 Full point group                 C3V     NOp   6
 Largest Abelian subgroup         CS      NOp   2
 Largest concise Abelian subgroup CS      NOp   2
                         Standard orientation:                         
 ---------------------------------------------------------------------
 Center     Atomic     Atomic              Coordinates (Angstroms)
 Number     Number      Type              X           Y           Z
 ---------------------------------------------------------------------
    1          6             0        0.000000    0.000000    0.000003
    2          1             0        0.000000    0.000000   -1.085595
    3          1             0        0.000000    1.023509    0.361859
    4          1             0       -0.886385   -0.511755    0.361859
    5          1             0        0.886385   -0.511755    0.361859
 ---------------------------------------------------------------------
 Rotational constants (GHZ):    159.5619603    159.5619603    159.5611573
 Leave Link  202 at Wed Apr 10 02:54:54 2013, MaxMem=    6291456 cpu:       0.0
 (Enter /soft/g03/g03/l301.exe)
 Standard basis: 6-31G(d,p) (6D, 7F)
 There are    24 symmetry adapted basis functions of A'  symmetry.
 There are    11 symmetry adapted basis functions of A"  symmetry.
 Integral buffers will be    131072 words long.
 Raffenetti 1 integral format.
 Two-electron integral symmetry is turned on.
    35 basis functions,    56 primitive gaussians,    35 cartesian basis functions
     5 alpha electrons        5 beta electrons
       nuclear repulsion energy        13.4899209891 Hartrees.
 IExCor=   0 DFT=F Ex=HF Corr=None ExCW=0 ScaHFX=  1.000000
 ScaDFX=  1.000000  1.000000  1.000000  1.000000
 IRadAn=      0 IRanWt=     -1 IRanGd=            0 ICorTp=0
 NAtoms=    5 NActive=    5 NUniq=    3 SFac= 3.59D+00 NAtFMM=   60 Big=F
 Leave Link  301 at Wed Apr 10 02:54:55 2013, MaxMem=    6291456 cpu:       0.0
 (Enter /soft/g03/g03/l302.exe)
 NPDir=0 NMtPBC=     1 NCelOv=     1 NCel=       1 NClECP=     1 NCelD=      1
         NCelK=      1 NCelE2=     1 NClLst=     1 CellRange=     0.0.
 One-electron integrals computed using PRISM.
 One-electron integral symmetry used in STVInt
 NBasis=    35 RedAO= T  NBF=    24    11
 NBsUse=    35 1.00D-06 NBFU=    24    11
 Leave Link  302 at Wed Apr 10 02:54:55 2013, MaxMem=    6291456 cpu:       0.1
 (Enter /soft/g03/g03/l303.exe)
 DipDrv:  MaxL=1.
 Leave Link  303 at Wed Apr 10 02:54:55 2013, MaxMem=    6291456 cpu:       0.0
 (Enter /soft/g03/g03/l401.exe)
 Initial guess read from the read-write file:
 Guess basis will be translated and rotated to current coordinates.
 Initial guess orbital symmetries:
       Occupied  (A1) (A1) (E) (E) (A1)
       Virtual   (A1) (A1) (E) (E) (A1) (E) (E) (A1) (E) (E) (A1)
                 (A1) (E) (E) (A2) (E) (E) (E) (E) (A1) (A1) (E)
                 (E) (E) (E) (A1) (E) (E) (A1) (A1)
 The electronic state of the initial guess is 1-A1.
 Leave Link  401 at Wed Apr 10 02:54:55 2013, MaxMem=    6291456 cpu:       0.0
 (Enter /soft/g03/g03/l502.exe)
 Closed shell SCF:
 Requested convergence on RMS density matrix=1.00D-08 within 128 cycles.
 Requested convergence on MAX density matrix=1.00D-06.
 Requested convergence on             energy=1.00D-06.
 No special actions if energy rises.
 Using DIIS extrapolation, IDIIS=  1040.
 Integral symmetry usage will be decided dynamically.
 Keep R1 integrals in memory in canonical form, NReq=     1064028.
 IEnd=     21939 IEndB=     21939 NGot=   6291456 MDV=   6088639
 LenX=   6088639
 Symmetry not used in FoFDir.
 MinBra= 0 MaxBra= 2 Meth= 1.
 IRaf=       0 NMat=   1 IRICut=       1 DoRegI=T DoRafI=F ISym2E= 0 JSym2E=0.

 Cycle   1  Pass 1  IDiag  1:
 E= -40.2016882468929    
 DIIS: error= 3.44D-04 at cycle   1 NSaved=   1.
 NSaved= 1 IEnMin= 1 EnMin= -40.2016882468929     IErMin= 1 ErrMin= 3.44D-04
 ErrMax= 3.44D-04 EMaxC= 1.00D-01 BMatC= 4.22D-06 BMatP= 4.22D-06
 IDIUse=3 WtCom= 9.97D-01 WtEn= 3.44D-03
 Coeff-Com:  0.100D+01
 Coeff-En:   0.100D+01
 Coeff:      0.100D+01
 Gap=     0.801 Goal=   None    Shift=    0.000
 RMSDP=5.79D-05 MaxDP=5.91D-04              OVMax= 7.53D-04

 Cycle   2  Pass 1  IDiag  1:
 E= -40.2016928077945     Delta-E=       -0.000004560902 Rises=F Damp=F
 DIIS: error= 1.13D-04 at cycle   2 NSaved=   2.
 NSaved= 2 IEnMin= 2 EnMin= -40.2016928077945     IErMin= 2 ErrMin= 1.13D-04
 ErrMax= 1.13D-04 EMaxC= 1.00D-01 BMatC= 4.92D-07 BMatP= 4.22D-06
 IDIUse=3 WtCom= 9.99D-01 WtEn= 1.13D-03
 Coeff-Com:  0.164D+00 0.836D+00
 Coeff-En:   0.000D+00 0.100D+01
 Coeff:      0.164D+00 0.836D+00
 Gap=     0.801 Goal=   None    Shift=    0.000
 RMSDP=1.47D-05 MaxDP=2.02D-04 DE=-4.56D-06 OVMax= 1.94D-04

 Cycle   3  Pass 1  IDiag  1:
 E= -40.2016932356969     Delta-E=       -0.000000427902 Rises=F Damp=F
 DIIS: error= 1.90D-05 at cycle   3 NSaved=   3.
 NSaved= 3 IEnMin= 3 EnMin= -40.2016932356969     IErMin= 3 ErrMin= 1.90D-05
 ErrMax= 1.90D-05 EMaxC= 1.00D-01 BMatC= 1.65D-08 BMatP= 4.92D-07
 IDIUse=1 WtCom= 1.00D+00 WtEn= 0.00D+00
 Coeff-Com: -0.519D-01 0.476D-01 0.100D+01
 Coeff:     -0.519D-01 0.476D-01 0.100D+01
 Gap=     0.801 Goal=   None    Shift=    0.000
 RMSDP=3.18D-06 MaxDP=3.36D-05 DE=-4.28D-07 OVMax= 4.22D-05

 Cycle   4  Pass 1  IDiag  1:
 E= -40.2016932558782     Delta-E=       -0.000000020181 Rises=F Damp=F
 DIIS: error= 2.08D-06 at cycle   4 NSaved=   4.
 NSaved= 4 IEnMin= 4 EnMin= -40.2016932558782     IErMin= 4 ErrMin= 2.08D-06
 ErrMax= 2.08D-06 EMaxC= 1.00D-01 BMatC= 1.01D-10 BMatP= 1.65D-08
 IDIUse=1 WtCom= 1.00D+00 WtEn= 0.00D+00
 Coeff-Com:  0.100D-01-0.116D-01-0.225D+00 0.123D+01
 Coeff:      0.100D-01-0.116D-01-0.225D+00 0.123D+01
 Gap=     0.801 Goal=   None    Shift=    0.000
 RMSDP=5.23D-07 MaxDP=4.36D-06 DE=-2.02D-08 OVMax= 4.61D-06

 Cycle   5  Pass 1  IDiag  1:
 E= -40.2016932560658     Delta-E=       -0.000000000188 Rises=F Damp=F
 DIIS: error= 2.64D-07 at cycle   5 NSaved=   5.
 NSaved= 5 IEnMin= 5 EnMin= -40.2016932560658     IErMin= 5 ErrMin= 2.64D-07
 ErrMax= 2.64D-07 EMaxC= 1.00D-01 BMatC= 1.42D-12 BMatP= 1.01D-10
 IDIUse=1 WtCom= 1.00D+00 WtEn= 0.00D+00
 Coeff-Com: -0.169D-02 0.236D-02 0.391D-01-0.285D+00 0.125D+01
 Coeff:     -0.169D-02 0.236D-02 0.391D-01-0.285D+00 0.125D+01
 Gap=     0.801 Goal=   None    Shift=    0.000
 RMSDP=9.84D-08 MaxDP=7.72D-07 DE=-1.88D-10 OVMax= 7.39D-07

 Cycle   6  Pass 1  IDiag  1:
 E= -40.2016932560687     Delta-E=       -0.000000000003 Rises=F Damp=F
[...]
   1   6     0.00   0.00   0.00     0.00   0.00   0.00     0.00   0.00   0.00
   2   1     0.10   0.49   0.00     0.49  -0.10   0.00     0.00   0.00   0.50
   3   1    -0.10   0.16  -0.46    -0.49  -0.03   0.10     0.00  -0.47  -0.17
   4   1     0.28  -0.27   0.32    -0.06   0.35   0.35     0.41   0.24  -0.17
   5   1    -0.28  -0.39   0.15     0.06  -0.21  -0.45    -0.41   0.24  -0.17
                     7                      8                      9
                    A1                      E                      E
 Frequencies --  3277.0520              3277.0915              3277.0915
 Red. masses --     1.1023                 1.1023                 1.1023
 Frc consts  --     6.9746                 6.9748                 6.9748
 IR Inten    --    21.3356                21.3335                21.3335
 Atom AN      X      Y      Z        X      Y      Z        X      Y      Z
   1   6     0.00   0.00  -0.09     0.09  -0.01   0.00     0.01   0.09   0.00
   2   1     0.00   0.00   0.86     0.02   0.00   0.00     0.00   0.02   0.00
   3   1     0.00   0.28   0.08     0.02   0.11   0.04     0.00  -0.76  -0.27
   4   1    -0.24  -0.14   0.08    -0.51  -0.31   0.22    -0.42  -0.23   0.17
   5   1     0.24  -0.14   0.08    -0.61   0.36  -0.26     0.25  -0.13   0.10

 -------------------
 - Thermochemistry -
 -------------------
 Temperature   298.150 Kelvin.  Pressure   1.00000 Atm.
 Atom  1 has atomic number  6 and mass  12.00000
 Atom  2 has atomic number  1 and mass   1.00783
 Atom  3 has atomic number  1 and mass   1.00783
 Atom  4 has atomic number  1 and mass   1.00783
 Atom  5 has atomic number  1 and mass   1.00783
 Molecular mass:    16.03130 amu.
 Principal axes and moments of inertia in atomic units:
                           1         2         3
     EIGENVALUES --    11.31060  11.31060  11.31066
           X            0.11532   0.99333   0.00000
           Y            0.99333  -0.11532   0.00000
           Z            0.00000   0.00000   1.00000
 This molecule is an oblate symmetric top.
 Rotational symmetry number  3.
 Rotational temperatures (Kelvin)      7.65776     7.65776     7.65772
 Rotational constants (GHZ):         159.56196   159.56196   159.56116
 Zero-point vibrational energy     122172.0 (Joules/Mol)
                                   29.19980 (Kcal/Mol)
 Vibrational temperatures:   2021.27  2021.29  2021.29  2336.91  2336.91
          (Kelvin)           4505.17  4714.94  4715.00  4715.00
 
 Zero-point correction=                           0.046533 (Hartree/Particle)
 Thermal correction to Energy=                    0.049393
 Thermal correction to Enthalpy=                  0.050337
 Thermal correction to Gibbs Free Energy=         0.027921
 Sum of electronic and zero-point Energies=            -40.318093
 Sum of electronic and thermal Energies=               -40.315233
 Sum of electronic and thermal Enthalpies=             -40.314289
 Sum of electronic and thermal Free Energies=          -40.336705
 
                     E (Thermal)             CV                S
                      KCal/Mol        Cal/Mol-Kelvin    Cal/Mol-Kelvin
 Total                   30.995              6.371             47.178
 Electronic               0.000              0.000              0.000
 Translational            0.889              2.981             34.261
 Rotational               0.889              2.981             12.850
 Vibrational             29.217              0.409              0.067
                       Q            Log10(Q)             Ln(Q)
 Total Bot       0.143585D-12        -12.842891        -29.571849
 Total V=0       0.363654D+09          8.560688         19.711712
 Vib (Bot)       0.396503D-21        -21.401754        -49.279359
 Vib (V=0)       0.100421D+01          0.001825          0.004202
 Electronic      0.100000D+01          0.000000          0.000000
 Translational   0.252295D+07          6.401908         14.740939
 Rotational      0.143534D+03          2.156955          4.966571
 
                                                                 job
                                                             IR Spectrum
 
      3    3                                                          1       1                                                      
      2    1                                                          6       4                                                      
      7    3                                                          2       0                                                      
      7    1                                                          4       5                                                      
 
      X                                                                       X                                                      
      X                                                                       X                                                      
      X                                                                       X                                                      
      X                                                                       X                                                      
      X                                                                       X                                                      
      X                                                                       X                                                      
      X                                                                       X                                                      
      X                                                                       X                                                      
      X                                                                       X                                                      
      X                                                                       X                                                      
      X                                                                       X                                                      
      X                                                                                                                              
      X                                                                                                                              
      X                                                                                                                              
      X                                                                                                                              
      X                                                                                                                              
      X                                                                                                                              
      X                                                                                                                              
      X                                                                                                                              
      X                                                                                                                              
 
 ***** Axes restored to original set *****
 -------------------------------------------------------------------
 Center     Atomic                   Forces (Hartrees/Bohr)
 Number     Number              X              Y              Z
 -------------------------------------------------------------------
    1          6           0.000000000    0.000000000    0.000005526
    2          1           0.000000000    0.000000000   -0.000112658
    3          1          -0.000103831    0.000000000    0.000035711
    4          1           0.000051915    0.000089920    0.000035711
    5          1           0.000051915   -0.000089920    0.000035711
 -------------------------------------------------------------------
 Cartesian Forces:  Max     0.000112658 RMS     0.000057091
 Force constants in Cartesian coordinates: 
                1             2             3             4             5
      1  0.597864D+00
      2  0.000000D+00  0.597864D+00
      3  0.000000D+00  0.000000D+00  0.597844D+00
      4 -0.506040D-01  0.000000D+00  0.000000D+00  0.487599D-01
      5  0.000000D+00 -0.506040D-01  0.000000D+00  0.000000D+00  0.487599D-01
      6  0.000000D+00  0.000000D+00 -0.347178D+00  0.000000D+00  0.000000D+00
      7 -0.314237D+00  0.000000D+00  0.932067D-01  0.280638D-02  0.000000D+00
      8  0.000000D+00 -0.506033D-01  0.000000D+00  0.000000D+00 -0.157697D-02
      9  0.932066D-01  0.000000D+00 -0.835552D-01  0.340050D-01  0.000000D+00
     10 -0.116512D+00 -0.114157D+00 -0.466033D-01 -0.481133D-03  0.189805D-02
     11 -0.114157D+00 -0.248328D+00 -0.807194D-01  0.189805D-02  0.171055D-02
     12 -0.466033D-01 -0.807193D-01 -0.835552D-01 -0.170025D-01 -0.294492D-01
     13 -0.116512D+00  0.114157D+00 -0.466034D-01 -0.481132D-03 -0.189805D-02
     14  0.114157D+00 -0.248328D+00  0.807194D-01 -0.189805D-02  0.171054D-02
     15 -0.466033D-01  0.807193D-01 -0.835552D-01 -0.170025D-01  0.294492D-01
                6             7             8             9            10
      6  0.372301D+00
      7 -0.238074D-02  0.336363D+00
      8  0.000000D+00  0.000000D+00  0.487587D-01
      9 -0.837440D-02 -0.101682D+00  0.000000D+00  0.847075D-01
     10  0.119037D-02 -0.124662D-01 -0.271321D-01 -0.127650D-01  0.120660D+00
     11  0.206178D-02  0.257678D-02  0.171082D-02  0.110237D-02  0.124536D+00
     12 -0.837440D-02  0.542783D-02  0.116060D-01  0.361103D-02  0.508408D-01
     13  0.119037D-02 -0.124662D-01  0.271321D-01 -0.127650D-01  0.879933D-02
     14 -0.206178D-02 -0.257678D-02  0.171082D-02 -0.110238D-02  0.148544D-01
     15 -0.837440D-02  0.542783D-02 -0.116060D-01  0.361103D-02  0.733720D-02
               11            12            13            14            15
     11  0.264462D+00
     12  0.880589D-01  0.847075D-01
     13 -0.148544D-01  0.733720D-02  0.120660D+00
     14 -0.195547D-01  0.105037D-01 -0.124536D+00  0.264462D+00
     15 -0.105036D-01  0.361103D-02  0.508408D-01 -0.880588D-01  0.847075D-01
 Force constants in internal coordinates: 
                1             2             3             4             5
      1  0.372301D+00
      2  0.546812D-03  0.372312D+00
      3  0.546812D-03  0.546613D-03  0.372312D+00
      4  0.546812D-03  0.546613D-03  0.546613D-03  0.372312D+00
      5  0.891282D-02  0.891254D-02 -0.891249D-02 -0.891249D-02  0.113140D+00
      6  0.891282D-02 -0.891249D-02  0.891254D-02 -0.891249D-02 -0.235122D-01
      7  0.891282D-02 -0.891249D-02 -0.891249D-02  0.891254D-02 -0.235122D-01
      8 -0.891267D-02  0.891237D-02  0.891237D-02 -0.891244D-02 -0.235132D-01
      9 -0.891267D-02  0.891237D-02 -0.891244D-02  0.891237D-02 -0.235132D-01
     10 -0.891267D-02 -0.891244D-02  0.891237D-02  0.891237D-02 -0.190880D-01
                6             7             8             9            10
      6  0.113140D+00
      7 -0.235122D-01  0.113140D+00
      8 -0.235132D-01 -0.190880D-01  0.113138D+00
      9 -0.190880D-01 -0.235132D-01 -0.235123D-01  0.113138D+00
     10 -0.235132D-01 -0.235132D-01 -0.235123D-01 -0.235123D-01  0.113138D+00
 Leave Link  716 at Wed Apr 10 02:55:00 2013, MaxMem=    6291456 cpu:       0.0
 (Enter /soft/g03/g03/l103.exe)

 GradGradGradGradGradGradGradGradGradGradGradGradGradGradGradGradGradGrad
 Berny optimization.
 Internal  Forces:  Max     0.000112658 RMS     0.000069902
 Search for a local minimum.
 Step number   1 out of a maximum of   2
 All quantities printed in internal units (Hartrees-Bohrs-Radians)
 Second derivative matrix not updated -- analytic derivatives used.
 The second derivative matrix:
                          R1        R2        R3        R4        A1
           R1           0.37230
           R2           0.00055   0.37231
           R3           0.00055   0.00055   0.37231
           R4           0.00055   0.00055   0.00055   0.37231
           A1           0.00891   0.00891  -0.00891  -0.00891   0.11314
           A2           0.00891  -0.00891   0.00891  -0.00891  -0.02351
           A3           0.00891  -0.00891  -0.00891   0.00891  -0.02351
           A4          -0.00891   0.00891   0.00891  -0.00891  -0.02351
           A5          -0.00891   0.00891  -0.00891   0.00891  -0.02351
           A6          -0.00891  -0.00891   0.00891   0.00891  -0.01909
                          A2        A3        A4        A5        A6
           A2           0.11314
           A3          -0.02351   0.11314
           A4          -0.02351  -0.01909   0.11314
           A5          -0.01909  -0.02351  -0.02351   0.11314
           A6          -0.02351  -0.02351  -0.02351  -0.02351   0.11314
     Eigenvalues ---    0.12960   0.12960   0.12960   0.14108   0.14108
     Eigenvalues ---    0.37395   0.37438   0.37439   0.374391000.00000
 Angle between quadratic step and forces=   1.27 degrees.
 Linear search not attempted -- first point.
 Iteration  1 RMS(Cart)=  0.00018697 RMS(Int)=  0.00000000
 Iteration  2 RMS(Cart)=  0.00000000 RMS(Int)=  0.00000000
 Variable       Old X    -DE/DX   Delta X   Delta X   Delta X     New X
                                 (Linear)    (Quad)   (Total)
    R1        2.05148  -0.00011   0.00000  -0.00030  -0.00030   2.05118
    R2        2.05147  -0.00011   0.00000  -0.00029  -0.00029   2.05118
    R3        2.05147  -0.00011   0.00000  -0.00029  -0.00029   2.05118
    R4        2.05147  -0.00011   0.00000  -0.00029  -0.00029   2.05118
    A1        1.91063   0.00000   0.00000   0.00001   0.00001   1.91063
    A2        1.91063   0.00000   0.00000   0.00001   0.00001   1.91063
    A3        1.91063   0.00000   0.00000   0.00001   0.00001   1.91063
    A4        1.91064   0.00000   0.00000  -0.00001  -0.00001   1.91063
    A5        1.91064   0.00000   0.00000  -0.00001  -0.00001   1.91063
    A6        1.91064   0.00000   0.00000  -0.00001  -0.00001   1.91063
         Item               Value     Threshold  Converged?
 Maximum Force            0.000113     0.000450     YES
 RMS     Force            0.000070     0.000300     YES
 Maximum Displacement     0.000291     0.001800     YES
 RMS     Displacement     0.000187     0.001200     YES
 Predicted change in Energy=-6.535098D-08
 Optimization completed.
    -- Stationary point found.
                           ----------------------------
                           !   Optimized Parameters   !
                           ! (Angstroms and Degrees)  !
 --------------------------                            --------------------------
 ! Name  Definition              Value          Derivative Info.                !
 --------------------------------------------------------------------------------
 ! R1    R(1,2)                  1.0856         -DE/DX =   -0.0001              !
 ! R2    R(1,3)                  1.0856         -DE/DX =   -0.0001              !
 ! R3    R(1,4)                  1.0856         -DE/DX =   -0.0001              !
 ! R4    R(1,5)                  1.0856         -DE/DX =   -0.0001              !
 ! A1    A(2,1,3)              109.4708         -DE/DX =    0.0                 !
 ! A2    A(2,1,4)              109.4708         -DE/DX =    0.0                 !
 ! A3    A(2,1,5)              109.4708         -DE/DX =    0.0                 !
 ! A4    A(3,1,4)              109.4717         -DE/DX =    0.0                 !
 ! A5    A(3,1,5)              109.4717         -DE/DX =    0.0                 !
 ! A6    A(4,1,5)              109.4717         -DE/DX =    0.0                 !
 --------------------------------------------------------------------------------
 GradGradGradGradGradGradGradGradGradGradGradGradGradGradGradGradGradGrad

 Leave Link  103 at Wed Apr 10 02:55:00 2013, MaxMem=    6291456 cpu:       0.0
 (Enter /soft/g03/g03/l9999.exe)

 Test job not archived.
 1\1\GINC-AN175\Freq\RMP2-FC\6-31G(d,p)\C1H4\SCANNE04\10-Apr-2013\0\\#P
  GEOM=ALLCHECK GUESS=READ SCRF=CHECK TEST GENCHK RMP2(FC)/6-31G(D,P) F
 REQ\\job\\0,1\C,0.,0.,-0.0000029201\H,0.,0.,1.0855945103\H,1.023509340
 9,0.0000001344,-0.3618589966\H,-0.5117545541,-0.8863851574,-0.36185899
 66\H,-0.5117547868,0.886385023,-0.3618589966\\Version=AM64L-G03RevC.02
 \State=1-A1\HF=-40.2016933\MP2=-40.3646258\RMSD=3.181e-11\RMSF=5.709e-
 05\Dipole=0.,0.,0.0000017\DipoleDeriv=0.0071516,0.,0.,0.,0.0071516,0.,
 0.,0.,0.0071526,0.063349,0.,0.,0.,0.063349,0.,0.,0.,-0.1320686,-0.1103
 49,0.,0.061412,0.,0.0633486,0.,0.0614107,0.,0.0416387,0.0199242,-0.075
 2132,-0.030706,-0.0752132,-0.0669246,-0.0531843,-0.0307054,-0.0531833,
 0.0416387,0.0199242,0.0752132,-0.030706,0.0752132,-0.0669246,0.0531843
 ,-0.0307054,0.0531833,0.0416387\Polar=12.3544622,0.,12.3544622,0.,0.,1
 2.3544714\PG=C03V [C3(H1C1),3SGV(H1)]\NImag=0\\0.59786422,0.,0.5978642
 2,0.,0.,0.59784370,-0.05060399,0.,0.,0.04875987,0.,-0.05060399,0.,0.,0
 .04875987,0.,0.,-0.34717816,0.,0.,0.37230136,-0.31423683,-0.00000003,0
 .09320669,0.00280638,0.,-0.00238074,0.33636284,-0.00000003,-0.05060333
 ,0.00000001,0.,-0.00157697,0.,0.00000004,0.04875866,0.09320665,0.00000
 001,-0.08355518,0.03400501,0.,-0.00837440,-0.10168160,-0.00000001,0.08
 470751,-0.11651167,-0.11415664,-0.04660333,-0.00048113,0.00189805,0.00
 119037,-0.01246619,-0.02713209,-0.01276503,0.12065967,-0.11415664,-0.2
 4832849,-0.08071937,0.00189805,0.00171055,0.00206178,0.00257678,0.0017
 1082,0.00110237,0.12453624,0.26446182,-0.04660331,-0.08071933,-0.08355
 518,-0.01700250,-0.02944920,-0.00837440,0.00542783,0.01160603,0.003611
 03,0.05084079,0.08805886,0.08470751,-0.11651173,0.11415667,-0.04660335
 ,-0.00048113,-0.00189805,0.00119037,-0.01246620,0.02713209,-0.01276503
 ,0.00879933,-0.01485443,0.00733720,0.12065974,0.11415667,-0.24832843,0
 .08071935,-0.00189805,0.00171054,-0.00206178,-0.00257678,0.00171082,-0
 .00110238,0.01485444,-0.01955470,0.01050365,-0.12453628,0.26446176,-0.
 04660333,0.08071932,-0.08355518,-0.01700251,0.02944920,-0.00837440,0.0
 0542783,-0.01160603,0.00361103,0.00733720,-0.01050365,0.00361103,0.050
 84081,-0.08805884,0.08470751\\0.,0.,-0.00000553,0.,0.,0.00011266,0.000
 10383,0.,-0.00003571,-0.00005192,-0.00008992,-0.00003571,-0.00005192,0
 .00008992,-0.00003571\\\@


 A ROPE OVER THE TOP OF A FENCE HAS THE SAME LENGTH ON EACH SIDE.
 WEIGHS 1/3 POUND PER FOOT.  ON ONE END HANGS A MONKEY HOLDING A
 BANANA, AND ON THE OTHER END A WEIGHT EQUAL TO THE WEIGHT
 OF THE MONKEY.  THE BANANA WEIGHS TWO OUNCES PER INCH.
 THE ROPE IS AS LONG AS THE AGE OF THE MONKEY, 
 AND THE WEIGHT OF THE MONKEY (IN OUNCES) IS AS MUCH
 AS THE AGE OF THE MONKEY'S MOTHER.  THE COMBINED AGES OF MONKEY
 AND MOTHER ARE THIRTY YEARS.  HALF THE WEIGHT OF THE MONKEY,
  PLUS THE WEIGHT OF THE BANANA, IS ONE FOURTH AS MUCH AS THE WEIGHT
 OF THE WEIGHT AND THE ROPE.
 THE MONKEY'S MOTHER IS HALF AS OLD AS THE MONKEY WILL BE
 WHEN IT IS 3 TIMES AS OLD AS ITS MOTHER WAS WHEN
 SHE WAS HALF AS OLD AS THE MONKEY WILL BE WHEN IT IS
 AS OLD AS ITS MOTHER WILL BE WHEN SHE IS 4 TIMES AS
 OLD AS THE MONKEY WAS WHEN IT WAS TWICE AS OLD AS 
 ITS MOTHER WAS WHEN SHE WAS ONE THIRD AS OLD AS THE
 MONKEY WAS WHEN IT WAS AS OLD AS ITS MOTHER WAS WHEN 
 SHE WAS 3 TIMES AS OLD AS THE MONKEY WAS WHEN IT WAS AS OLD AS ITS
 MOTHER WAS WHEN SHE WAS 3 TIMES AS OLD AS THE MONKEY 
 WAS WHEN IT WAS ONE FOURTH WAS OLD AS IT IS NOW.

 HOW LONG IS THE BANANA?
 Job cpu time:  0 days  0 hours  0 minutes  4.1 seconds.
 File lengths (MBytes):  RWF=     27 Int=      0 D2E=      0 Chk=      6 Scr=      1
 Normal termination of Gaussian 03 at Wed Apr 10 02:55:00 2013.
total 36
drwx------  2 scanne04 2013007  4096 Apr 10 02:55 .
drwxrwxrwt 90 root     root    28672 Apr 10 02:54 ..
-rw-r--r--  1 scanne04 2013007   244 Apr 10 02:54 ch4.inp
/local/run/antares-adm.114825.0
