
 Entering Gaussian System, Link 0=g03
 Initial command:
 /soft/g03/g03/l1.exe /local/run/antares-adm.114833.0/Gau-31518.inp -scrdir=/local/run/antares-adm.114833.0/
 Entering Link 1 = /soft/g03/g03/l1.exe PID=     31519.
  
 Copyright (c) 1988,1990,1992,1993,1995,1998,2003,2004, Gaussian, Inc.
                  All Rights Reserved.
  
 This is the Gaussian(R) 03 program.  It is based on the
 the Gaussian(R) 98 system (copyright 1998, Gaussian, Inc.),
 the Gaussian(R) 94 system (copyright 1995, Gaussian, Inc.),
 the Gaussian 92(TM) system (copyright 1992, Gaussian, Inc.),
 the Gaussian 90(TM) system (copyright 1990, Gaussian, Inc.),
 the Gaussian 88(TM) system (copyright 1988, Gaussian, Inc.),
 the Gaussian 86(TM) system (copyright 1986, Carnegie Mellon
 University), and the Gaussian 82(TM) system (copyright 1983,
 Carnegie Mellon University). Gaussian is a federally registered
 trademark of Gaussian, Inc.
  
 This software contains proprietary and confidential information,
 including trade secrets, belonging to Gaussian, Inc.
  
 This software is provided under written license and may be
 used, copied, transmitted, or stored only in accord with that
 written license.
  
 The following legend is applicable only to US Government
 contracts under FAR:
  
                    RESTRICTED RIGHTS LEGEND
  
 Use, reproduction and disclosure by the US Government is
 subject to restrictions as set forth in subparagraphs (a)
 and (c) of the Commercial Computer Software - Restricted
 Rights clause in FAR 52.227-19.
  
 Gaussian, Inc.
 340 Quinnipiac St., Bldg. 40, Wallingford CT 06492
  
  
 ---------------------------------------------------------------
 Warning -- This program may not be used in any manner that
 competes with the business of Gaussian, Inc. or will provide
 assistance to any competitor of Gaussian, Inc.  The licensee
 of this program is prohibited from giving any competitor of
 Gaussian, Inc. access to this program.  By using this program,
 the user acknowledges that Gaussian, Inc. is engaged in the
 business of creating and licensing software in the field of
 computational chemistry and represents and warrants to the
 licensee that it is not a competitor of Gaussian, Inc. and that
 it will not use this program in any manner prohibited above.
 ---------------------------------------------------------------
  

 Cite this work as:
 Gaussian 03, Revision C.02,
 M. J. Frisch, G. W. Trucks, H. B. Schlegel, G. E. Scuseria, 
 M. A. Robb, J. R. Cheeseman, J. A. Montgomery, Jr., T. Vreven, 
 K. N. Kudin, J. C. Burant, J. M. Millam, S. S. Iyengar, J. Tomasi, 
 V. Barone, B. Mennucci, M. Cossi, G. Scalmani, N. Rega, 
 G. A. Petersson, H. Nakatsuji, M. Hada, M. Ehara, K. Toyota, 
 R. Fukuda, J. Hasegawa, M. Ishida, T. Nakajima, Y. Honda, O. Kitao, 
 H. Nakai, M. Klene, X. Li, J. E. Knox, H. P. Hratchian, J. B. Cross, 
 C. Adamo, J. Jaramillo, R. Gomperts, R. E. Stratmann, O. Yazyev, 
 A. J. Austin, R. Cammi, C. Pomelli, J. W. Ochterski, P. Y. Ayala, 
 K. Morokuma, G. A. Voth, P. Salvador, J. J. Dannenberg, 
 V. G. Zakrzewski, S. Dapprich, A. D. Daniels, M. C. Strain, 
 O. Farkas, D. K. Malick, A. D. Rabuck, K. Raghavachari, 
 J. B. Foresman, J. V. Ortiz, Q. Cui, A. G. Baboul, S. Clifford, 
 J. Cioslowski, B. B. Stefanov, G. Liu, A. Liashenko, P. Piskorz, 
 I. Komaromi, R. L. Martin, D. J. Fox, T. Keith, M. A. Al-Laham, 
 C. Y. Peng, A. Nanayakkara, M. Challacombe, P. M. W. Gill, 
 B. Johnson, W. Chen, M. W. Wong, C. Gonzalez, and J. A. Pople, 
 Gaussian, Inc., Wallingford CT, 2004.
 
 ******************************************
 Gaussian 03:  AM64L-G03RevC.02 12-Jun-2004
                10-Apr-2013 
 ******************************************
 -------------------------------------------------
 #P MP2 6-31G** iop(6/7=3) gfinput pop=full # freq
 -------------------------------------------------
 1/10=4,30=1,38=1/1,3;
 2/17=6,18=5,40=1/2;
 3/5=1,6=6,7=101,11=9,16=1,24=10,25=1,30=1/1,2,3;
 4//1;
 5/5=2,38=5/2;
 8/6=3,8=1,10=2,19=11,30=-1/1;
 9/15=3,16=-3/6;
 11/6=1,8=1,15=11,17=12,24=-1,27=1,28=-2,29=300,32=6,42=3/1,2,10;
 10/6=2,21=1/2;
 8/6=4,8=1,10=2,19=11,30=-1/11,4;
 10/5=1,20=4/2;
 11/12=2,14=11,16=1,17=2,28=-2,42=3/2,10,12;
 6/7=3/1;
 7/8=1,10=1,12=2,25=1,44=2/1,2,3,16;
 1/10=4,30=1/3;
 99//99;
 Leave Link    1 at Wed Apr 10 03:13:54 2013, MaxMem=          0 cpu:       0.1
 (Enter /soft/g03/g03/l101.exe)
 ---
 job
 ---
 Symbolic Z-matrix:
 Charge =  0 Multiplicity = 2
 6                     0.2564    0.        0. 
 1                     0.52097  -0.21537   1.02703 
 1                     0.52097   0.99712  -0.327 
 1                     0.52098  -0.78175  -0.70003 
 1                    -1.08512  -0.00001  0. 
 1                    -2.01618   0.       0. 
 
                    Isotopes and Nuclear Properties:

  Atom         1           2           3           4           5           6
 IAtWgt=          12           1           1           1           1           1
 AtmWgt=  12.0000000   1.0078250   1.0078250   1.0078250   1.0078250   1.0078250
 IAtSpn=           0           1           1           1           1           1
 AtZEff=   0.0000000   0.0000000   0.0000000   0.0000000   0.0000000   0.0000000
 AtQMom=   0.0000000   0.0000000   0.0000000   0.0000000   0.0000000   0.0000000
 AtGFac=   0.0000000   2.7928460   2.7928460   2.7928460   2.7928460   2.7928460
 Leave Link  101 at Wed Apr 10 03:13:54 2013, MaxMem=    6291456 cpu:       0.0
 (Enter /soft/g03/g03/l103.exe)

 GradGradGradGradGradGradGradGradGradGradGradGradGradGradGradGradGradGrad
 Berny optimization.
 Initialization pass.
 Trust Radius=3.00D-01 FncErr=1.00D-07 GrdErr=1.00D-07
 Number of steps in this run=   2 maximum allowed number of steps=   2.
 GradGradGradGradGradGradGradGradGradGradGradGradGradGradGradGradGradGrad

 Leave Link  103 at Wed Apr 10 03:13:54 2013, MaxMem=    6291456 cpu:       0.0
 (Enter /soft/g03/g03/l202.exe)
                          Input orientation:                          
 ---------------------------------------------------------------------
 Center     Atomic     Atomic              Coordinates (Angstroms)
 Number     Number      Type              X           Y           Z
 ---------------------------------------------------------------------
    1          6             0        0.256398    0.000000    0.000000
    2          1             0        0.520967   -0.215370    1.027031
    3          1             0        0.520966    0.997122   -0.326996
    4          1             0        0.520979   -0.781746   -0.700031
    5          1             0       -1.085120   -0.000007   -0.000004
    6          1             0       -2.016182    0.000000   -0.000001
 ---------------------------------------------------------------------
                    Distance matrix (angstroms):
                    1          2          3          4          5
     1  C    0.000000
     2  H    1.082208   0.000000
     3  H    1.082208   1.817560   0.000000
     4  H    1.082208   1.817560   1.817561   0.000000
     5  H    1.341518   1.918514   1.918516   1.918517   0.000000
     6  H    2.272580   2.745597   2.745596   2.745606   0.931062
                    6
     6  H    0.000000
 This structure is nearly, but not quite of a higher symmetry.
 Consider Symm=Loose if the higher symmetry is desired.
 Stoichiometry    CH5(2)
 Framework group  C1[X(CH5)]
 Deg. of freedom    12
 Full point group                 C1      NOp   1
 Largest Abelian subgroup         C1      NOp   1
 Largest concise Abelian subgroup C1      NOp   1
                         Standard orientation:                         
 ---------------------------------------------------------------------
 Center     Atomic     Atomic              Coordinates (Angstroms)
 Number     Number      Type              X           Y           Z
 ---------------------------------------------------------------------
    1          6             0       -0.006078   -0.038776   -0.253376
    2          1             0        0.969330   -0.448102   -0.481858
    3          1             0       -0.182803    0.945333   -0.667467
    4          1             0       -0.823574   -0.733593   -0.395168
    5          1             0        0.025720    0.164102    1.072331
    6          1             0        0.047797    0.304917    1.992418
 ---------------------------------------------------------------------
 Rotational constants (GHZ):    151.7939114     60.0145701     60.0145635
 Leave Link  202 at Wed Apr 10 03:13:54 2013, MaxMem=    6291456 cpu:       0.0
 (Enter /soft/g03/g03/l301.exe)
 Standard basis: 6-31G(d,p) (6D, 7F)
 AO basis set in the form of general basis input:
  1 0
 S   6 1.00       0.000000000000
      0.3047524880D+04  0.1834737132D-02
      0.4573695180D+03  0.1403732281D-01
      0.1039486850D+03  0.6884262226D-01
      0.2921015530D+02  0.2321844432D+00
      0.9286662960D+01  0.4679413484D+00
      0.3163926960D+01  0.3623119853D+00
 SP   3 1.00       0.000000000000
      0.7868272350D+01 -0.1193324198D+00  0.6899906659D-01
      0.1881288540D+01 -0.1608541517D+00  0.3164239610D+00
      0.5442492580D+00  0.1143456438D+01  0.7443082909D+00
 SP   1 1.00       0.000000000000
      0.1687144782D+00  0.1000000000D+01  0.1000000000D+01
 D   1 1.00       0.000000000000
      0.8000000000D+00  0.1000000000D+01
 ****
  2 0
 S   3 1.00       0.000000000000
      0.1873113696D+02  0.3349460434D-01
      0.2825394365D+01  0.2347269535D+00
      0.6401216923D+00  0.8137573261D+00
 S   1 1.00       0.000000000000
      0.1612777588D+00  0.1000000000D+01
 P   1 1.00       0.000000000000
      0.1100000000D+01  0.1000000000D+01
 ****
  3 0
 S   3 1.00       0.000000000000
      0.1873113696D+02  0.3349460434D-01
      0.2825394365D+01  0.2347269535D+00
      0.6401216923D+00  0.8137573261D+00
 S   1 1.00       0.000000000000
      0.1612777588D+00  0.1000000000D+01
 P   1 1.00       0.000000000000
      0.1100000000D+01  0.1000000000D+01
 ****
  4 0
 S   3 1.00       0.000000000000
      0.1873113696D+02  0.3349460434D-01
      0.2825394365D+01  0.2347269535D+00
      0.6401216923D+00  0.8137573261D+00
 S   1 1.00       0.000000000000
      0.1612777588D+00  0.1000000000D+01
 P   1 1.00       0.000000000000
      0.1100000000D+01  0.1000000000D+01
 ****
  5 0
 S   3 1.00       0.000000000000
      0.1873113696D+02  0.3349460434D-01
      0.2825394365D+01  0.2347269535D+00
      0.6401216923D+00  0.8137573261D+00
 S   1 1.00       0.000000000000
      0.1612777588D+00  0.1000000000D+01
 P   1 1.00       0.000000000000
      0.1100000000D+01  0.1000000000D+01
 ****
  6 0
 S   3 1.00       0.000000000000
      0.1873113696D+02  0.3349460434D-01
      0.2825394365D+01  0.2347269535D+00
      0.6401216923D+00  0.8137573261D+00
 S   1 1.00       0.000000000000
      0.1612777588D+00  0.1000000000D+01
 P   1 1.00       0.000000000000
      0.1100000000D+01  0.1000000000D+01
 ****

 There are    40 symmetry adapted basis functions of A   symmetry.
 Integral buffers will be    131072 words long.
 Raffenetti 2 integral format.
 Two-electron integral symmetry is turned on.
    40 basis functions,    63 primitive gaussians,    40 cartesian basis functions
     6 alpha electrons        5 beta electrons
       nuclear repulsion energy        15.4130019423 Hartrees.
 IExCor=   0 DFT=F Ex=HF Corr=None ExCW=0 ScaHFX=  1.000000
 ScaDFX=  1.000000  1.000000  1.000000  1.000000
 IRadAn=      0 IRanWt=     -1 IRanGd=            0 ICorTp=0
 NAtoms=    6 NActive=    6 NUniq=    6 SFac= 1.00D+00 NAtFMM=   60 Big=F
 Leave Link  301 at Wed Apr 10 03:13:54 2013, MaxMem=    6291456 cpu:       0.0
 (Enter /soft/g03/g03/l302.exe)
 NPDir=0 NMtPBC=     1 NCelOv=     1 NCel=       1 NClECP=     1 NCelD=      1
         NCelK=      1 NCelE2=     1 NClLst=     1 CellRange=     0.0.
 One-electron integrals computed using PRISM.
 NBasis=    40 RedAO= T  NBF=    40
 NBsUse=    40 1.00D-06 NBFU=    40
 Leave Link  302 at Wed Apr 10 03:13:54 2013, MaxMem=    6291456 cpu:       0.1
 (Enter /soft/g03/g03/l303.exe)
 DipDrv:  MaxL=1.
 Leave Link  303 at Wed Apr 10 03:13:54 2013, MaxMem=    6291456 cpu:       0.0
 (Enter /soft/g03/g03/l401.exe)
 Harris functional with IExCor=  205 diagonalized for initial guess.
 ExpMin= 1.61D-01 ExpMax= 3.05D+03 ExpMxC= 4.57D+02 IAcc=1 IRadAn=         1 AccDes= 1.00D-06
 HarFok:  IExCor= 205 AccDes= 1.00D-06 IRadAn=         1 IDoV=1
 ScaDFX=  1.000000  1.000000  1.000000  1.000000
 Harris En= -40.8413265993833    
 Initial guess orbital symmetries:
 Alpha Orbitals:
       Occupied  (A) (A) (A) (A) (A) (A)
       Virtual   (A) (A) (A) (A) (A) (A) (A) (A) (A) (A) (A) (A)
                 (A) (A) (A) (A) (A) (A) (A) (A) (A) (A) (A) (A)
                 (A) (A) (A) (A) (A) (A) (A) (A) (A) (A)
 Beta  Orbitals:
       Occupied  (A) (A) (A) (A) (A)
       Virtual   (A) (A) (A) (A) (A) (A) (A) (A) (A) (A) (A) (A)
                 (A) (A) (A) (A) (A) (A) (A) (A) (A) (A) (A) (A)
                 (A) (A) (A) (A) (A) (A) (A) (A) (A) (A) (A)
 The electronic state of the initial guess is 2-A.
 <S**2> of initial guess= 0.7500
 Leave Link  401 at Wed Apr 10 03:13:54 2013, MaxMem=    6291456 cpu:       0.1
 (Enter /soft/g03/g03/l502.exe)
 UHF open shell SCF:
 Requested convergence on RMS density matrix=1.00D-08 within 128 cycles.
 Requested convergence on MAX density matrix=1.00D-06.
 Requested convergence on             energy=1.00D-06.
 No special actions if energy rises.
 Using DIIS extrapolation, IDIIS=  1040.
 Integral symmetry usage will be decided dynamically.
 Keep R1 and R2 integrals in memory in canonical form, NReq=     1550873.
 IEnd=     23199 IEndB=     23199 NGot=   6291456 MDV=   5613304
 LenX=   5613304
 Symmetry not used in FoFDir.
 MinBra= 0 MaxBra= 2 Meth= 1.
 IRaf=       0 NMat=   1 IRICut=       1 DoRegI=T DoRafI=F ISym2E= 0 JSym2E=0.

 Cycle   1  Pass 1  IDiag  1:
 E= -40.5269070956675    
 DIIS: error= 5.50D-02 at cycle   1 NSaved=   1.
 NSaved= 1 IEnMin= 1 EnMin= -40.5269070956675     IErMin= 1 ErrMin= 5.50D-02
 ErrMax= 5.50D-02 EMaxC= 1.00D-01 BMatC= 5.39D-01 BMatP= 5.39D-01
 IDIUse=3 WtCom= 4.50D-01 WtEn= 5.50D-01
 Coeff-Com:  0.100D+01
 Coeff-En:   0.100D+01
 Coeff:      0.100D+01
 Gap=     0.612 Goal=   None    Shift=    0.000
 Gap=     0.596 Goal=   None    Shift=    0.000
 GapD=    0.596 DampG=2.000 DampE=0.500 DampFc=1.0000 IDamp=-1.
 RMSDP=1.10D-02 MaxDP=1.82D-01              OVMax= 1.84D-01

 Cycle   2  Pass 1  IDiag  1:
 E= -40.6358503453552     Delta-E=       -0.108943249688 Rises=F Damp=F
 DIIS: error= 2.27D-02 at cycle   2 NSaved=   2.
 NSaved= 2 IEnMin= 2 EnMin= -40.6358503453552     IErMin= 2 ErrMin= 2.27D-02
 ErrMax= 2.27D-02 EMaxC= 1.00D-01 BMatC= 9.55D-02 BMatP= 5.39D-01
 IDIUse=3 WtCom= 7.73D-01 WtEn= 2.27D-01
 Coeff-Com:  0.258D+00 0.742D+00
 Coeff-En:   0.000D+00 0.100D+01
 Coeff:      0.200D+00 0.800D+00
 Gap=     0.619 Goal=   None    Shift=    0.000
 Gap=     0.671 Goal=   None    Shift=    0.000
 RMSDP=3.80D-03 MaxDP=6.11D-02 DE=-1.09D-01 OVMax= 5.38D-02

 Cycle   3  Pass 1  IDiag  1:
 E= -40.6597294041729     Delta-E=       -0.023879058818 Rises=F Damp=F
 DIIS: error= 5.58D-03 at cycle   3 NSaved=   3.
 NSaved= 3 IEnMin= 3 EnMin= -40.6597294041729     IErMin= 3 ErrMin= 5.58D-03
 ErrMax= 5.58D-03 EMaxC= 1.00D-01 BMatC= 3.50D-03 BMatP= 9.55D-02
 IDIUse=3 WtCom= 9.44D-01 WtEn= 5.58D-02
 Coeff-Com: -0.495D-01 0.241D-01 0.103D+01
 Coeff-En:   0.000D+00 0.000D+00 0.100D+01
 Coeff:     -0.468D-01 0.227D-01 0.102D+01
 Gap=     0.608 Goal=   None    Shift=    0.000
 Gap=     0.624 Goal=   None    Shift=    0.000
 RMSDP=1.12D-03 MaxDP=2.68D-02 DE=-2.39D-02 OVMax= 2.31D-02

 Cycle   4  Pass 1  IDiag  1:
 E= -40.6614301412423     Delta-E=       -0.001700737069 Rises=F Damp=F
 DIIS: error= 2.10D-03 at cycle   4 NSaved=   4.
 NSaved= 4 IEnMin= 4 EnMin= -40.6614301412423     IErMin= 4 ErrMin= 2.10D-03
 ErrMax= 2.10D-03 EMaxC= 1.00D-01 BMatC= 5.21D-04 BMatP= 3.50D-03
 IDIUse=3 WtCom= 9.79D-01 WtEn= 2.10D-02
 Coeff-Com:  0.253D-01-0.646D-01-0.832D+00 0.187D+01
 Coeff-En:   0.000D+00 0.000D+00 0.000D+00 0.100D+01
 Coeff:      0.248D-01-0.633D-01-0.814D+00 0.185D+01
 Gap=     0.613 Goal=   None    Shift=    0.000
 Gap=     0.637 Goal=   None    Shift=    0.000
 RMSDP=9.24D-04 MaxDP=2.29D-02 DE=-1.70D-03 OVMax= 1.77D-02

 Cycle   5  Pass 1  IDiag  1:
 E= -40.6618834197161     Delta-E=       -0.000453278474 Rises=F Damp=F
 DIIS: error= 4.90D-04 at cycle   5 NSaved=   5.
 NSaved= 5 IEnMin= 5 EnMin= -40.6618834197161     IErMin= 5 ErrMin= 4.90D-04
 ErrMax= 4.90D-04 EMaxC= 1.00D-01 BMatC= 2.55D-05 BMatP= 5.21D-04
 IDIUse=3 WtCom= 9.95D-01 WtEn= 4.90D-03
 Coeff-Com: -0.975D-02 0.319D-01 0.366D+00-0.947D+00 0.156D+01
 Coeff-En:   0.000D+00 0.000D+00 0.000D+00 0.000D+00 0.100D+01
 Coeff:     -0.970D-02 0.317D-01 0.364D+00-0.943D+00 0.156D+01
 Gap=     0.613 Goal=   None    Shift=    0.000
 Gap=     0.639 Goal=   None    Shift=    0.000
 RMSDP=1.63D-04 MaxDP=2.27D-03 DE=-4.53D-04 OVMax= 3.09D-03

 Cycle   6  Pass 1  IDiag  1:
 E= -40.6619080662769     Delta-E=       -0.000024646561 Rises=F Damp=F
 DIIS: error= 1.80D-04 at cycle   6 NSaved=   6.
 NSaved= 6 IEnMin= 6 EnMin= -40.6619080662769     IErMin= 6 ErrMin= 1.80D-04
 ErrMax= 1.80D-04 EMaxC= 1.00D-01 BMatC= 3.91D-06 BMatP= 2.55D-05
 IDIUse=3 WtCom= 9.98D-01 WtEn= 1.80D-03
 Coeff-Com:  0.239D-02-0.939D-02-0.104D+00 0.296D+00-0.818D+00 0.163D+01
 Coeff-En:   0.000D+00 0.000D+00 0.000D+00 0.000D+00 0.000D+00 0.100D+01
 Coeff:      0.239D-02-0.937D-02-0.104D+00 0.295D+00-0.816D+00 0.163D+01
 Gap=     0.614 Goal=   None    Shift=    0.000
 Gap=     0.639 Goal=   None    Shift=    0.000
 RMSDP=9.92D-05 MaxDP=1.68D-03 DE=-2.46D-05 OVMax= 1.50D-03

 Cycle   7  Pass 1  IDiag  1:
 E= -40.6619129819588     Delta-E=       -0.000004915682 Rises=F Damp=F
 DIIS: error= 7.77D-05 at cycle   7 NSaved=   7.
 NSaved= 7 IEnMin= 7 EnMin= -40.6619129819588     IErMin= 7 ErrMin= 7.77D-05
 ErrMax= 7.77D-05 EMaxC= 1.00D-01 BMatC= 6.81D-07 BMatP= 3.91D-06
 IDIUse=1 WtCom= 1.00D+00 WtEn= 0.00D+00
 Coeff-Com:  0.733D-03-0.185D-02-0.191D-01 0.373D-01 0.976D-01-0.836D+00
 Coeff-Com:  0.172D+01
 Coeff:      0.733D-03-0.185D-02-0.191D-01 0.373D-01 0.976D-01-0.836D+00
 Coeff:      0.172D+01
 Gap=     0.614 Goal=   None    Shift=    0.000
 Gap=     0.639 Goal=   None    Shift=    0.000
 RMSDP=5.51D-05 MaxDP=9.30D-04 DE=-4.92D-06 OVMax= 9.55D-04

 Cycle   8  Pass 1  IDiag  1:
 E= -40.6619139599026     Delta-E=       -0.000000977944 Rises=F Damp=F
 DIIS: error= 2.47D-05 at cycle   8 NSaved=   8.
 NSaved= 8 IEnMin= 8 EnMin= -40.6619139599026     IErMin= 8 ErrMin= 2.47D-05
 ErrMax= 2.47D-05 EMaxC= 1.00D-01 BMatC= 3.80D-08 BMatP= 6.81D-07
 IDIUse=1 WtCom= 1.00D+00 WtEn= 0.00D+00
 Coeff-Com: -0.383D-03 0.123D-02 0.142D-01-0.353D-01 0.451D-01 0.975D-01
 Coeff-Com: -0.548D+00 0.143D+01
 Coeff:     -0.383D-03 0.123D-02 0.142D-01-0.353D-01 0.451D-01 0.975D-01
 Coeff:     -0.548D+00 0.143D+01
 Gap=     0.614 Goal=   None    Shift=    0.000
 Gap=     0.639 Goal=   None    Shift=    0.000
 RMSDP=9.66D-06 MaxDP=1.79D-04 DE=-9.78D-07 OVMax= 2.49D-04

 Cycle   9  Pass 1  IDiag  1:
 E= -40.6619140029217     Delta-E=       -0.000000043019 Rises=F Damp=F
 DIIS: error= 6.89D-06 at cycle   9 NSaved=   9.
 NSaved= 9 IEnMin= 9 EnMin= -40.6619140029217     IErMin= 9 ErrMin= 6.89D-06
 ErrMax= 6.89D-06 EMaxC= 1.00D-01 BMatC= 1.33D-09 BMatP= 3.80D-08
 IDIUse=1 WtCom= 1.00D+00 WtEn= 0.00D+00
 Coeff-Com:  0.106D-03-0.359D-03-0.427D-02 0.109D-01-0.196D-01 0.356D-02
 Coeff-Com:  0.103D+00-0.419D+00 0.133D+01
 Coeff:      0.106D-03-0.359D-03-0.427D-02 0.109D-01-0.196D-01 0.356D-02
 Coeff:      0.103D+00-0.419D+00 0.133D+01
 Gap=     0.614 Goal=   None    Shift=    0.000
 Gap=     0.639 Goal=   None    Shift=    0.000
 RMSDP=1.10D-06 MaxDP=1.37D-05 DE=-4.30D-08 OVMax= 3.48D-05

 Cycle  10  Pass 1  IDiag  1:
 E= -40.6619140041540     Delta-E=       -0.000000001232 Rises=F Damp=F
 DIIS: error= 2.73D-06 at cycle  10 NSaved=  10.
 NSaved=10 IEnMin=10 EnMin= -40.6619140041540     IErMin=10 ErrMin= 2.73D-06
 ErrMax= 2.73D-06 EMaxC= 1.00D-01 BMatC= 2.49D-10 BMatP= 1.33D-09
 IDIUse=1 WtCom= 1.00D+00 WtEn= 0.00D+00
 Coeff-Com: -0.448D-04 0.150D-03 0.200D-02-0.510D-02 0.109D-01-0.110D-01
 Coeff-Com: -0.341D-01 0.218D+00-0.107D+01 0.189D+01
 Coeff:     -0.448D-04 0.150D-03 0.200D-02-0.510D-02 0.109D-01-0.110D-01
 Coeff:     -0.341D-01 0.218D+00-0.107D+01 0.189D+01
 Gap=     0.614 Goal=   None    Shift=    0.000
 Gap=     0.639 Goal=   None    Shift=    0.000
 RMSDP=7.05D-07 MaxDP=8.11D-06 DE=-1.23D-09 OVMax= 1.86D-05

 Cycle  11  Pass 1  IDiag  1:
 E= -40.6619140044625     Delta-E=       -0.000000000309 Rises=F Damp=F
 DIIS: error= 8.40D-07 at cycle  11 NSaved=  11.
 NSaved=11 IEnMin=11 EnMin= -40.6619140044625     IErMin=11 ErrMin= 8.40D-07
 ErrMax= 8.40D-07 EMaxC= 1.00D-01 BMatC= 2.21D-11 BMatP= 2.49D-10
 IDIUse=1 WtCom= 1.00D+00 WtEn= 0.00D+00
 Coeff-Com:  0.130D-04-0.438D-04-0.632D-03 0.158D-02-0.368D-02 0.475D-02
 Coeff-Com:  0.907D-02-0.796D-01 0.487D+00-0.116D+01 0.175D+01
 Coeff:      0.130D-04-0.438D-04-0.632D-03 0.158D-02-0.368D-02 0.475D-02
 Coeff:      0.907D-02-0.796D-01 0.487D+00-0.116D+01 0.175D+01
 Gap=     0.614 Goal=   None    Shift=    0.000
 Gap=     0.639 Goal=   None    Shift=    0.000
 RMSDP=3.30D-07 MaxDP=6.03D-06 DE=-3.09D-10 OVMax= 8.28D-06

 Cycle  12  Pass 1  IDiag  1:
 E= -40.6619140044964     Delta-E=       -0.000000000034 Rises=F Damp=F
 DIIS: error= 1.23D-07 at cycle  12 NSaved=  12.
 NSaved=12 IEnMin=12 EnMin= -40.6619140044964     IErMin=12 ErrMin= 1.23D-07
 ErrMax= 1.23D-07 EMaxC= 1.00D-01 BMatC= 8.93D-13 BMatP= 2.21D-11
 IDIUse=1 WtCom= 1.00D+00 WtEn= 0.00D+00
 Coeff-Com: -0.331D-05 0.112D-04 0.170D-03-0.412D-03 0.101D-02-0.143D-02
 Coeff-Com: -0.234D-02 0.232D-01-0.153D+00 0.400D+00-0.763D+00 0.150D+01
 Coeff:     -0.331D-05 0.112D-04 0.170D-03-0.412D-03 0.101D-02-0.143D-02
 Coeff:     -0.234D-02 0.232D-01-0.153D+00 0.400D+00-0.763D+00 0.150D+01
 Gap=     0.614 Goal=   None    Shift=    0.000
 Gap=     0.639 Goal=   None    Shift=    0.000
 RMSDP=8.39D-08 MaxDP=2.07D-06 DE=-3.39D-11 OVMax= 1.14D-06

 Cycle  13  Pass 1  IDiag  1:
 E= -40.6619140044976     Delta-E=       -0.000000000001 Rises=F Damp=F
 DIIS: error= 2.31D-08 at cycle  13 NSaved=  13.
 NSaved=13 IEnMin=13 EnMin= -40.6619140044976     IErMin=13 ErrMin= 2.31D-08
 ErrMax= 2.31D-08 EMaxC= 1.00D-01 BMatC= 5.50D-14 BMatP= 8.93D-13
 IDIUse=1 WtCom= 1.00D+00 WtEn= 0.00D+00
 Coeff-Com:  0.615D-06-0.207D-05-0.369D-04 0.838D-04-0.234D-03 0.420D-03
 Coeff-Com:  0.370D-03-0.563D-02 0.421D-01-0.120D+00 0.252D+00-0.709D+00
 Coeff-Com:  0.154D+01
 Coeff:      0.615D-06-0.207D-05-0.369D-04 0.838D-04-0.234D-03 0.420D-03
 Coeff:      0.370D-03-0.563D-02 0.421D-01-0.120D+00 0.252D+00-0.709D+00
 Coeff:      0.154D+01
 Gap=     0.614 Goal=   None    Shift=    0.000
 Gap=     0.639 Goal=   None    Shift=    0.000
 RMSDP=1.87D-08 MaxDP=4.55D-07 DE=-1.18D-12 OVMax= 2.63D-07

 Cycle  14  Pass 1  IDiag  1:
 E= -40.6619140044978     Delta-E=        0.000000000000 Rises=F Damp=F
 DIIS: error= 3.81D-09 at cycle  14 NSaved=  14.
 NSaved=14 IEnMin=14 EnMin= -40.6619140044978     IErMin=14 ErrMin= 3.81D-09
 ErrMax= 3.81D-09 EMaxC= 1.00D-01 BMatC= 1.29D-15 BMatP= 5.50D-14
 IDIUse=1 WtCom= 1.00D+00 WtEn= 0.00D+00
 Coeff-Com: -0.678D-07 0.258D-06 0.493D-05-0.101D-04 0.338D-04-0.725D-04
 Coeff-Com: -0.201D-04 0.842D-03-0.704D-02 0.211D-01-0.458D-01 0.157D+00
 Coeff-Com: -0.447D+00 0.132D+01
 Coeff:     -0.678D-07 0.258D-06 0.493D-05-0.101D-04 0.338D-04-0.725D-04
 Coeff:     -0.201D-04 0.842D-03-0.704D-02 0.211D-01-0.458D-01 0.157D+00
 Coeff:     -0.447D+00 0.132D+01
 Gap=     0.614 Goal=   None    Shift=    0.000
 Gap=     0.639 Goal=   None    Shift=    0.000
 RMSDP=1.36D-09 MaxDP=1.45D-08 DE=-2.49D-13 OVMax= 2.27D-08

 SCF Done:  E(UHF) =  -40.6619140045     A.U. after   14 cycles
             Convg  =    0.1363D-08             -V/T =  2.0001
             S**2   =   0.7877
 KE= 4.065754172162D+01 PE=-1.246650235688D+02 EE= 2.793256590030D+01
 Annihilation of the first spin contaminant:
 S**2 before annihilation     0.7877,   after     0.7503
 Leave Link  502 at Wed Apr 10 03:13:54 2013, MaxMem=    6291456 cpu:       0.1
 (Enter /soft/g03/g03/l801.exe)
 ExpMin= 1.61D-01 ExpMax= 3.05D+03 ExpMxC= 4.57D+02 IAcc=1 IRadAn=         1 AccDes= 1.00D-06
 HarFok:  IExCor= 205 AccDes= 1.00D-06 IRadAn=         1 IDoV=1
 ScaDFX=  1.000000  1.000000  1.000000  1.000000
 Largest valence mixing into a core orbital is  1.62D-04
 Largest core mixing into a valence orbital is  2.29D-05
 Largest valence mixing into a core orbital is  2.00D-04
 Largest core mixing into a valence orbital is  3.27D-05
 Range of M.O.s used for correlation:     2    40
 NBasis=    40 NAE=     6 NBE=     5 NFC=     1 NFV=     0
 NROrb=     39 NOA=     5 NOB=     4 NVA=    34 NVB=    35
 Leave Link  801 at Wed Apr 10 03:13:54 2013, MaxMem=    6291456 cpu:       0.0
 (Enter /soft/g03/g03/l906.exe)
 Frozen-core derivative calculation, NFC=   1 NFV=   0.
 FulOut=F Deriv=T AODrv=T NAtomX=     6
   MMem=           0  MDisk=           5 MDiskD=           5
  W3Min=       19200 MinDsk=      102260 NBas6D=          40
 NBas2D=         862    NTT=         820    LW2=     3000000
    MDV=     6280212 MDiskM=        2277 NBas2p=         862
 Disk-based method using ON**2 memory for  5 occupieds at a time.
 Permanent disk used for amplitudes=       50065 words.
 Estimated scratch disk usage=     1096240 words.
 IMap=   1   2   3   4   5   6
 Actual    scratch disk usage=     1096240 words.
 JobTyp=2 Pass  1:  I=   2 to   6 NPSUse=  1 ParTrn=F ParDer=F DoDerP=T.
 (rs|ai) integrals will be sorted in core.
 IMap=   1   2   3   4   5
 Actual    scratch disk usage=     1096240 words.
 JobTyp=3 Pass  1:  I=   2 to   5 NPSUse=  1 ParTrn=F ParDer=F DoDerP=T.
 (rs|ai) integrals will be sorted in core.
 Spin components of T(2) and E(2):
     alpha-alpha T2 =       0.6135901207D-02 E2=     -0.1873522723D-01
     alpha-beta  T2 =       0.4335375291D-01 E2=     -0.1365747402D+00
     beta-beta   T2 =       0.3864240597D-02 E2=     -0.1108408908D-01
 The integrals were generated   2 times.
 (S**2,0)=  0.78770D+00           (S**2,1)=  0.76337D+00
 E(PUHF)=      -0.40669364760D+02        E(PMP2)=      -0.40833365829D+02
 ANorm=    0.1026330305D+01
 E2 =    -0.1663940565D+00 EUMP2 =    -0.40828308061042D+02
 Leave Link  906 at Wed Apr 10 03:13:58 2013, MaxMem=    6291456 cpu:       4.1
 (Enter /soft/g03/g03/l1101.exe)
 Using compressed Sx but separate Hx and Fx, NAtomX=     6.
 Will process   7 centers per pass.
 Leave Link 1101 at Wed Apr 10 03:13:58 2013, MaxMem=    6291456 cpu:       0.1
 (Enter /soft/g03/g03/l1102.exe)
 Use density number 0.
 Leave Link 1102 at Wed Apr 10 03:13:58 2013, MaxMem=    6291456 cpu:       0.0
 (Enter /soft/g03/g03/l1110.exe)
 Forming Gx(P) for the SCF density, NAtomX=     6.
 Integral derivatives from FoFDir, PRISM(SPDF).
 Do as many integral derivatives as possible in FoFDir.
 G2DrvN: MDV=       6291406.
 G2DrvN: will do    7 centers at a time, making    1 passes doing MaxLOS=2.
 Symmetry not used in FoFDir.
 MinBra= 0 MaxBra= 2 Meth= 1.
 IRaf=       0 NMat=   1 IRICut=       1 DoRegI=T DoRafI=F ISym2E= 0 JSym2E=0.
 FoFDir/FoFCou used for L=0 through L=2.
 Leave Link 1110 at Wed Apr 10 03:13:59 2013, MaxMem=    6291456 cpu:       0.2
 (Enter /soft/g03/g03/l1002.exe)
 Minotr:  UHF wavefunction.
 DoAtom=TTTTTT
          Frozen-core window.
          Direct CPHF calculation.
          Solving linear equations simultaneously.
          Differentiating once with respect to electric field.
                with respect to dipole field.
          Differentiating once with respect to nuclear coordinates.
          Requested convergence is 1.0D-08 RMS, and 1.0D-07 maximum.
          Secondary convergence is 1.0D-12 RMS, and 1.0D-12 maximum.
          NewPWx=T KeepS1=T KeepF1=T KeepIn=T MapXYZ=F.
          MDV=       6291400 using IRadAn=       2.
          Store integrals in memory, NReq=     1493710.
 Symmetry not used in FoFDir.
 MinBra= 0 MaxBra= 2 Meth= 1.
 IRaf=       0 NMat=   1 IRICut=       1 DoRegI=T DoRafI=F ISym2E= 0 JSym2E=0.
          There are  21 degrees of freedom in the 1st order CPHF.
    18 vectors were produced by pass  0.
 AX will form  18 AO Fock derivatives at one time.
    18 vectors were produced by pass  1.
    18 vectors were produced by pass  2.
    18 vectors were produced by pass  3.
    18 vectors were produced by pass  4.
    18 vectors were produced by pass  5.
    12 vectors were produced by pass  6.
     3 vectors were produced by pass  7.
 Inv2:  IOpt= 1 Iter= 1 AM= 3.15D-15 Conv= 1.00D-12.
 Inverted reduced A of dimension  123 with in-core refinement.
 Saving first derivative matrices.
 End of Minotr Frequency-dependent properties file   721 does not exist.
 Leave Link 1002 at Wed Apr 10 03:13:59 2013, MaxMem=    6291456 cpu:       0.3
 (Enter /soft/g03/g03/l811.exe)
 MDV=     6291456.
 Form MO integral derivatives with frozen-active canonical formalism.
 MOERI=1 MOERIx=1 NAtoms=     6 NAtomA=     6 NAtomX=     6.
 Discarding MO integrals.
 MO basis two electron integral derivatives will not be stored on disk.
 IAlg= 3 DoFC=T DoPWx=T Debug=F.
 Frozen-core window:  NFC=   1 NFV=   0.
             Reordered first order wavefunction length =       207461
 In DefCFB: NBatch=  1, ICI=  6, ICA= 35, LFMax= 12
             Large arrays: LIAPS=     2425600, LIARS=     1764000 words.
  In StABat: MaxSiz= 15 MinSiz= 10 NAtomB=  3
 DoIAMN:  NPSUse=  1.
 In DefCFB: NBatch=  1, ICI=  6, ICA= 35, LFMax= 12
             Large arrays: LIAPS=     2425600, LIARS=     1764000 words.
  In StABat: MaxSiz= 15 MinSiz= 10 NAtomB=  3
 Leave Link  811 at Wed Apr 10 03:14:01 2013, MaxMem=    6291456 cpu:       1.8
 (Enter /soft/g03/g03/l804.exe)
 Frozen-core window:  NFC=   1 NFV=   0.
 Open-shell transformation, MDV=     6291456 ITran=4 ISComp=1.
 Compute canonical integrals, LenV=     5604917.
 Symmetry not used in FoFDir.
 MinBra= 0 MaxBra= 2 Meth= 1.
 IRaf=       0 NMat=   1 IRICut=       1 DoRegI=T DoRafI=F ISym2E= 0 JSym2E=0.
 Compute canonical integrals, LenV=     5604917.
 SymMOI:  orbitals are not symmetric.
 Spin components of T(2) and E(2):
     alpha-alpha T2 =       0.6135901207D-02 E2=     -0.1873522723D-01
     alpha-beta  T2 =       0.4335375291D-01 E2=     -0.1365747402D+00
     beta-beta   T2 =       0.3864240597D-02 E2=     -0.1108408908D-01
 ANorm=    0.1451450237D+01
 E2=       -0.1663940565D+00 EUMP2=       -0.40828308061042D+02
 (S**2,0)=  0.78770D+00           (S**2,1)=  0.76337D+00
 E(PUHF)=      -0.40669364760D+02        E(PMP2)=      -0.40833365829D+02
 Leave Link  804 at Wed Apr 10 03:14:01 2013, MaxMem=    6291456 cpu:       0.2
 (Enter /soft/g03/g03/l1002.exe)
 Minotr:  UHF wavefunction.
          Computing MP2 derivatives.
          Using Z-Vector for PSCF gradient.
          Skipping F1 and S1 gradient terms here.
 DoAtom=TTTTTT
          Frozen-core window.
          Using MO integrals in the linear equations.
          Forming densities via direct SCF.
          Solving linear equations simultaneously.
          Differentiating once with respect to electric field.
                with respect to dipole field.
          Differentiating once with respect to nuclear coordinates.
          Requested convergence is 1.0D-10 RMS, and 1.0D-09 maximum.
          Secondary convergence is 1.0D-12 RMS, and 1.0D-12 maximum.
          NewPWx=F KeepS1=T KeepF1=T KeepIn=T MapXYZ=F.
          MDV=       6291400 using IRadAn=       0.
          There are   1 degrees of freedom in the 1st order CPHF.
 Petite list used in FoFDir.
 MinBra= 0 MaxBra= 2 Meth= 1.
 IRaf=       0 NMat=   1 IRICut=       1 DoRegI=T DoRafI=F ISym2E= 1 JSym2E=1.
     1 vectors were produced by pass  0.
     1 vectors were produced by pass  1.
     1 vectors were produced by pass  2.
     1 vectors were produced by pass  3.
     1 vectors were produced by pass  4.
     1 vectors were produced by pass  5.
     1 vectors were produced by pass  6.
     1 vectors were produced by pass  7.
     1 vectors were produced by pass  8.
     1 vectors were produced by pass  9.
     1 vectors were produced by pass 10.
 Inv2:  IOpt= 1 Iter= 1 AM= 4.98D-16 Conv= 1.00D-12.
 Inverted reduced A of dimension   11 with in-core refinement.
 End of Minotr Frequency-dependent properties file   721 does not exist.
 Leave Link 1002 at Wed Apr 10 03:14:01 2013, MaxMem=    6291456 cpu:       0.2
 (Enter /soft/g03/g03/l1102.exe)
 Use density number 2.
 Symmetrizing basis deriv contribution to polar:
 IMax=3 JMax=2 DiffMx= 0.00D+00
 Leave Link 1102 at Wed Apr 10 03:14:01 2013, MaxMem=    6291456 cpu:       0.0
 (Enter /soft/g03/g03/l1110.exe)
 Forming Gx(P) for generalized density number  2 NAtomX=     6.
 Integral derivatives from FoFDir, PRISM(SPDF).
 Do as many integral derivatives as possible in FoFDir.
 G2DrvN: MDV=       6291406.
 G2DrvN: will do    7 centers at a time, making    1 passes doing MaxLOS=2.
 Symmetry not used in FoFDir.
 MinBra= 0 MaxBra= 2 Meth= 1.
 IRaf=       0 NMat=   1 IRICut=       1 DoRegI=T DoRafI=F ISym2E= 0 JSym2E=0.
 FoFDir/FoFCou used for L=0 through L=2.
 Leave Link 1110 at Wed Apr 10 03:14:01 2013, MaxMem=    6291456 cpu:       0.2
 (Enter /soft/g03/g03/l1112.exe)
 MP22nd: MDV=       6291456
 This link is doing NAtomX=     6 total of    21 degrees of freedom.
 Using ON3 I/O method in MakUI.
 Frozen-core window:  NFC=   1 NFV=   0.
 Using Ix for Sx.
 Use MO integrals over full window.
 Using OV2 memory method for fx*t*t/D, MaxI=  6 Force3=T.
 R2 and R3 integrals will be kept in memory, NReq=     1493220.
 Symmetry not used in FoFDir.
 MinBra= 0 MaxBra= 2 Meth= 1.
 IRaf=       0 NMat=   1 IRICut=       1 DoRegI=T DoRafI=F ISym2E= 0 JSym2E=0.
 DD1Dir will call FoFMem   1 times, MxPair=        86
 NAB=    30 NAA=    15 NBB=    10.
 Symmetry is being used.
 Discarding MO integrals.
 Leave Link 1112 at Wed Apr 10 03:14:02 2013, MaxMem=    6291456 cpu:       0.8
 (Enter /soft/g03/g03/l601.exe)
 Copying SCF densities to generalized density rwf, ISCF=1 IROHF=0.

 **********************************************************************

            Population analysis using the SCF density.

 **********************************************************************

 Orbital symmetries:
 Alpha Orbitals:
       Occupied  (A) (A) (A) (A) (A) (A)
       Virtual   (A) (A) (A) (A) (A) (A) (A) (A) (A) (A) (A) (A)
                 (A) (A) (A) (A) (A) (A) (A) (A) (A) (A) (A) (A)
                 (A) (A) (A) (A) (A) (A) (A) (A) (A) (A)
 Beta  Orbitals:
       Occupied  (A) (A) (A) (A) (A)
       Virtual   (A) (A) (A) (A) (A) (A) (A) (A) (A) (A) (A) (A)
                 (A) (A) (A) (A) (A) (A) (A) (A) (A) (A) (A) (A)
                 (A) (A) (A) (A) (A) (A) (A) (A) (A) (A) (A)
 The electronic state is 2-A.
 Alpha  occ. eigenvalues --  -11.24113  -0.97034  -0.62745  -0.57598  -0.57598
 Alpha  occ. eigenvalues --   -0.35804
 Alpha virt. eigenvalues --    0.25560   0.31617   0.31617   0.35566   0.71210
 Alpha virt. eigenvalues --    0.71210   0.74788   0.90726   1.13649   1.13649
 Alpha virt. eigenvalues --    1.17303   1.20270   1.41611   1.61736   1.61736
 Alpha virt. eigenvalues --    2.05191   2.05191   2.10415   2.31018   2.31018
 Alpha virt. eigenvalues --    2.31863   2.58036   2.58036   2.82349   2.85989
 Alpha virt. eigenvalues --    2.96132   2.96132   3.16592   3.16592   3.56558
 Alpha virt. eigenvalues --    3.79782   3.79782   4.21130   4.91993
  Beta  occ. eigenvalues --  -11.22246  -0.91014  -0.56456  -0.56456  -0.53171
  Beta virt. eigenvalues --    0.10750   0.26729   0.32593   0.32593   0.40621
  Beta virt. eigenvalues --    0.71611   0.71611   0.83789   0.97571   1.14785
  Beta virt. eigenvalues --    1.14785   1.19138   1.22808   1.44283   1.65299
  Beta virt. eigenvalues --    1.65299   2.08588   2.08588   2.15578   2.31563
  Beta virt. eigenvalues --    2.32099   2.32099   2.61069   2.61069   2.82895
  Beta virt. eigenvalues --    2.90483   2.97106   2.97106   3.17605   3.17605
  Beta virt. eigenvalues --    3.57422   3.80544   3.80544   4.24233   4.94027
     Alpha Molecular Orbital Coefficients
                           1         2         3         4         5
                        (A)--O    (A)--O    (A)--O    (A)--O    (A)--O
     EIGENVALUES --   -11.24113  -0.97034  -0.62745  -0.57598  -0.57598
   1 1   C  1S          0.99550  -0.19809   0.02776   0.00000   0.00000
   2        2S          0.02946   0.38369  -0.04384   0.00000   0.00000
   3        2PX         0.00001   0.00051   0.00703   0.41382  -0.16830
   4        2PY         0.00004   0.00323   0.04487   0.16492   0.40978
   5        2PZ         0.00026   0.02110   0.29320  -0.03517  -0.05867
   6        3S         -0.01368   0.38639  -0.05983   0.00000   0.00000
   7        3PX        -0.00002   0.00016   0.00359   0.20075  -0.08164
   8        3PY        -0.00014   0.00101   0.02290   0.08001   0.19879
   9        3PZ        -0.00090   0.00662   0.14964  -0.01706  -0.02846
  10        4XX        -0.00217  -0.00316  -0.00877   0.00189  -0.02188
  11        4YY        -0.00216  -0.00296  -0.00807  -0.00307   0.01909
  12        4ZZ        -0.00184   0.00573   0.02213   0.00118   0.00279
  13        4XY         0.00000   0.00004   0.00013  -0.02671  -0.00216
  14        4XZ         0.00001   0.00025   0.00086  -0.00562   0.00486
  15        4YZ         0.00006   0.00157   0.00546  -0.00266  -0.01288
  16 2   H  1S          0.00000   0.13539  -0.06993   0.20104  -0.18604
  17        2S          0.00238   0.03497  -0.05095   0.15969  -0.14777
  18        3PX         0.00017  -0.01202   0.00493  -0.00673   0.00927
  19        3PY        -0.00006   0.00499  -0.00119   0.00751   0.00102
  20        3PZ         0.00000   0.00245   0.00424   0.00177  -0.00293
  21 3   H  1S          0.00000   0.13539  -0.06993   0.06060   0.26713
  22        2S          0.00238   0.03497  -0.05095   0.04813   0.21218
  23        3PX        -0.00003   0.00217  -0.00074   0.00654   0.00062
  24        3PY         0.00017  -0.01218   0.00566  -0.00152  -0.01119
  25        3PZ        -0.00004   0.00473   0.00332   0.00091   0.00536
  26 4   H  1S          0.00000   0.13539  -0.06994  -0.26164  -0.08109
  27        2S          0.00238   0.03497  -0.05095  -0.20782  -0.06441
  28        3PX        -0.00014   0.01006  -0.00390  -0.00783  -0.00663
  29        3PY        -0.00011   0.00850  -0.00260  -0.00919   0.00223
  30        3PZ         0.00001   0.00138   0.00466  -0.00200  -0.00130
  31 5   H  1S          0.00003   0.09487   0.24193   0.00000   0.00000
  32        2S          0.00400   0.02486   0.16723   0.00000   0.00000
  33        3PX         0.00001  -0.00025   0.00007   0.00475  -0.00193
  34        3PY         0.00007  -0.00161   0.00042   0.00189   0.00470
  35        3PZ         0.00044  -0.01052   0.00276  -0.00040  -0.00067
  36 6   H  1S         -0.00035   0.04007   0.27233   0.00000   0.00000
  37        2S         -0.00137   0.02117   0.28230   0.00000   0.00000
  38        3PX         0.00001  -0.00009  -0.00027   0.00076  -0.00031
  39        3PY         0.00004  -0.00059  -0.00172   0.00030   0.00075
  40        3PZ         0.00028  -0.00386  -0.01126  -0.00006  -0.00011
                           6         7         8         9        10
                        (A)--O    (A)--V    (A)--V    (A)--V    (A)--V
     EIGENVALUES --    -0.35804   0.25560   0.31617   0.31617   0.35566
   1 1   C  1S          0.04165  -0.14366   0.00000   0.00000   0.05722
   2        2S         -0.08944   0.10714   0.00000   0.00000  -0.04649
   3        2PX        -0.01078  -0.00290   0.04828  -0.30366  -0.00416
   4        2PY        -0.06881  -0.01851  -0.30043  -0.04665  -0.02655
   5        2PZ        -0.44961  -0.12098   0.04482   0.01442  -0.17349
   6        3S         -0.25327   2.55713   0.00000   0.00000  -1.00597
   7        3PX        -0.00887  -0.00893   0.24022  -1.51079  -0.02991
   8        3PY        -0.05659  -0.05696  -1.49469  -0.23210  -0.19084
   9        3PZ        -0.36978  -0.37225   0.22297   0.07175  -1.24704
  10        4XX         0.00873  -0.01517  -0.00750   0.00229  -0.00972
  11        4YY         0.00818  -0.01487   0.00544  -0.00279  -0.00852
  12        4ZZ        -0.01531  -0.00218   0.00206   0.00050   0.04247
  13        4XY        -0.00010   0.00006  -0.00293  -0.00980   0.00022
  14        4XZ        -0.00067   0.00036   0.00187  -0.00620   0.00145
  15        4YZ        -0.00425   0.00230  -0.00844  -0.00044   0.00923
  16 2   H  1S          0.04166  -0.01741  -0.03401   0.05967  -0.06422
  17        2S          0.07412  -1.19252  -0.96387   1.69098  -0.11261
  18        3PX        -0.00282   0.00090   0.00119  -0.00794   0.00024
  19        3PY        -0.00023  -0.00108  -0.00789  -0.00147  -0.00070
  20        3PZ        -0.00808  -0.00455   0.00177  -0.00063  -0.00374
  21 3   H  1S          0.04166  -0.01741   0.06868  -0.00038  -0.06421
  22        2S          0.07412  -1.19252   1.94636  -0.01075  -0.11262
  23        3PX         0.00026  -0.00028   0.00122  -0.00811  -0.00015
  24        3PY        -0.00396   0.00035  -0.00797  -0.00125  -0.00023
  25        3PZ        -0.00759  -0.00474  -0.00001   0.00039  -0.00380
  26 4   H  1S          0.04166  -0.01741  -0.03467  -0.05929  -0.06422
  27        2S          0.07412  -1.19252  -0.98250  -1.68023  -0.11261
  28        3PX         0.00198  -0.00094   0.00140  -0.00792  -0.00036
  29        3PY         0.00053  -0.00137  -0.00785  -0.00096  -0.00079
  30        3PZ        -0.00832  -0.00446   0.00177   0.00137  -0.00371
  31 5   H  1S         -0.02964   0.03055   0.00000   0.00000   0.25542
  32        2S         -0.05208  -0.32873   0.00001   0.00000   2.93989
  33        3PX         0.00071   0.00004   0.00078  -0.00492  -0.00003
  34        3PY         0.00455   0.00023  -0.00486  -0.00076  -0.00021
  35        3PZ         0.02971   0.00148   0.00073   0.00023  -0.00137
  36 6   H  1S          0.29554   0.03845   0.00000   0.00000   0.04070
  37        2S          0.57393   0.18873   0.00000   0.00000  -1.84549
  38        3PX        -0.00003  -0.00006   0.00087  -0.00546  -0.00040
  39        3PY        -0.00021  -0.00035  -0.00540  -0.00084  -0.00257
  40        3PZ        -0.00136  -0.00229   0.00081   0.00026  -0.01678
                          11        12        13        14        15
                        (A)--V    (A)--V    (A)--V    (A)--V    (A)--V
     EIGENVALUES --     0.71210   0.71210   0.74788   0.90726   1.13649
   1 1   C  1S          0.00000   0.00000   0.01807   0.02773   0.00000
   2        2S          0.00000   0.00000  -0.00285   0.16114   0.00001
   3        2PX        -0.69729   0.16501  -0.02245   0.00463  -0.20782
   4        2PY        -0.16066  -0.69005  -0.14320   0.02957   0.76086
   5        2PZ         0.04131   0.10164  -0.93575   0.19319  -0.11145
   6        3S          0.00000   0.00000  -0.23779  -0.42310  -0.00001
   7        3PX         1.42421  -0.33703   0.03162   0.00422   0.33876
   8        3PY         0.32814   1.40943   0.20168   0.02690  -1.24026
   9        3PZ        -0.08438  -0.20761   1.31786   0.17582   0.18168
  10        4XX        -0.01350   0.05633   0.03877   0.06286   0.21032
  11        4YY         0.01624  -0.04662   0.03630   0.06097  -0.17391
  12        4ZZ        -0.00274  -0.00970  -0.06928  -0.01968  -0.03641
  13        4XY         0.07012   0.01636  -0.00046  -0.00035   0.05236
  14        4XZ         0.02430  -0.01226  -0.00299  -0.00229  -0.04914
  15        4YZ         0.00343   0.04214  -0.01910  -0.01459   0.15872
  16 2   H  1S         -0.40788   0.27473   0.19724   0.22588   0.45003
  17        2S         -0.19192   0.12927   0.06196   0.08806  -0.93998
  18        3PX         0.03587  -0.01519  -0.00571   0.02293   0.08569
  19        3PY        -0.00164   0.02461   0.00216  -0.00811   0.01873
  20        3PZ        -0.00442  -0.00083  -0.00009   0.00392  -0.03435
  21 3   H  1S         -0.03399  -0.49060   0.19724   0.22588  -0.76587
  22        2S         -0.01599  -0.23084   0.06196   0.08806   1.59969
  23        3PX         0.02030  -0.00819   0.00099  -0.00389   0.01477
  24        3PY         0.00602   0.03899  -0.00594   0.02432  -0.11394
  25        3PZ        -0.00173  -0.01036   0.00099  -0.00040   0.06716
  26 4   H  1S          0.44186   0.21586   0.19725   0.22587   0.31584
  27        2S          0.20791   0.10157   0.06196   0.08806  -0.65970
  28        3PX         0.03444   0.00193   0.00472  -0.01881  -0.07733
  29        3PY         0.01649   0.02607   0.00383  -0.01476   0.01054
  30        3PZ         0.00078  -0.00202  -0.00060   0.00594  -0.02041
  31 5   H  1S          0.00001   0.00000  -0.13642   0.36863   0.00000
  32        2S          0.00000   0.00000  -0.10513  -0.48800   0.00000
  33        3PX         0.03010  -0.00712   0.00228   0.00223  -0.00813
  34        3PY         0.00693   0.02978   0.01453   0.01423   0.02976
  35        3PZ        -0.00178  -0.00439   0.09493   0.09296  -0.00436
  36 6   H  1S          0.00000   0.00000   0.02894   1.02820   0.00000
  37        2S          0.00000  -0.00001  -0.27023  -0.83312   0.00000
  38        3PX         0.02547  -0.00603  -0.00022  -0.00037   0.00345
  39        3PY         0.00587   0.02521  -0.00141  -0.00233  -0.01263
  40        3PZ        -0.00151  -0.00371  -0.00919  -0.01525   0.00185
                          16        17        18        19        20
                        (A)--V    (A)--V    (A)--V    (A)--V    (A)--V
     EIGENVALUES --     1.13649   1.17303   1.20270   1.41611   1.61736
   1 1   C  1S          0.00000   0.05042  -0.02162  -0.12749   0.00000
   2        2S          0.00000  -1.26214   0.13159  -1.87419  -0.00001
   3        2PX        -0.76875   0.00738   0.00702  -0.00631   0.02470
   4        2PY        -0.20273   0.04713   0.04477  -0.04030  -0.01969
   5        2PZ         0.04946   0.30799   0.29257  -0.26339   0.00242
   6        3S          0.00000   2.56718  -0.52056   5.23870   0.00002
   7        3PX         1.25311  -0.01427  -0.02416   0.02331  -0.02272
   8        3PY         0.33046  -0.09111  -0.15415   0.14872   0.01811
   9        3PZ        -0.08063  -0.59534  -1.00732   0.97185  -0.00222
  10        4XX         0.04330   0.05741   0.06861  -0.13655   0.27176
  11        4YY        -0.05492   0.05215   0.06234  -0.13474  -0.34443
  12        4ZZ         0.01162  -0.17296  -0.20575  -0.05778   0.07267
  13        4XY        -0.26229  -0.00098  -0.00116   0.00033  -0.06215
  14        4XZ        -0.09165  -0.00638  -0.00760   0.00218   0.47887
  15        4YZ        -0.01844  -0.04073  -0.04851   0.01393  -0.31787
  16 2   H  1S          0.62452   0.52066  -0.00549  -0.43721  -0.01895
  17        2S         -1.30446  -1.04158  -0.29813  -0.66841   0.02482
  18        3PX         0.07978   0.08761   0.00181  -0.00394   0.08178
  19        3PY        -0.07656  -0.03413   0.00723   0.00362   0.07719
  20        3PZ        -0.03104  -0.00428   0.04880   0.01305   0.24541
  21 3   H  1S          0.07747   0.52066  -0.00549  -0.43720   0.01484
  22        2S         -0.16182  -1.04157  -0.29814  -0.66840  -0.01944
  23        3PX        -0.06584  -0.01542   0.00106   0.00105  -0.13181
  24        3PY         0.00128   0.09047   0.00813  -0.00242  -0.09532
  25        3PZ        -0.00368  -0.02087   0.04868   0.01386  -0.18523
  26 4   H  1S         -0.70200   0.52066  -0.00548  -0.43720   0.00411
  27        2S          1.46628  -1.04157  -0.29813  -0.66841  -0.00538
  28        3PX         0.07162  -0.07271   0.00064   0.00383  -0.11823
  29        3PY         0.09784  -0.05966   0.00704   0.00486   0.15229
  30        3PZ         0.02921   0.00347   0.04886   0.01268  -0.07667
  31 5   H  1S          0.00000  -0.00404  -1.21789   0.02796   0.00000
  32        2S          0.00000   0.22155   3.11363  -2.62701  -0.00001
  33        3PX        -0.03007   0.00022   0.00205   0.00223   0.20098
  34        3PY        -0.00793   0.00143   0.01306   0.01421  -0.16024
  35        3PZ         0.00193   0.00935   0.08531   0.09279   0.01970
  36 6   H  1S          0.00000  -0.32099   0.41683   0.41986   0.00000
  37        2S          0.00000   0.18230  -1.57982   0.62758   0.00000
  38        3PX         0.01276  -0.00060   0.00309   0.00157   0.07331
  39        3PY         0.00336  -0.00386   0.01974   0.01001  -0.05845
  40        3PZ        -0.00082  -0.02519   0.12896   0.06537   0.00719
                          21        22        23        24        25
                        (A)--V    (A)--V    (A)--V    (A)--V    (A)--V
     EIGENVALUES --     1.61736   2.05191   2.05191   2.10415   2.31018
   1 1   C  1S          0.00000   0.00000   0.00000   0.05609   0.00000
   2        2S          0.00001   0.00001   0.00001  -0.03977   0.00000
   3        2PX         0.01983  -0.04015   0.07300  -0.00348   0.00022
   4        2PY         0.02435   0.07232   0.03943  -0.02222  -0.09329
   5        2PZ        -0.00420  -0.01010  -0.00778  -0.14518   0.01427
   6        3S         -0.00004  -0.00002  -0.00005  -0.62053   0.00000
   7        3PX        -0.01824   0.10309  -0.18746   0.00502  -0.00155
   8        3PY        -0.02240  -0.18572  -0.10127   0.03204   0.67137
   9        3PZ         0.00385   0.02595   0.01998   0.20937  -0.10270
  10        4XX        -0.09261  -0.01323  -0.00688  -0.23476  -0.41076
  11        4YY         0.22922  -0.02556  -0.02260  -0.21370   0.33298
  12        4ZZ        -0.13661   0.03879   0.02948   0.68666   0.07778
  13        4XY        -0.21952   0.01000  -0.04587   0.00391  -0.25311
  14        4XZ         0.41897   0.08905  -0.15682   0.02553   0.05074
  15        4YZ         0.43492  -0.15824  -0.08352   0.16292  -0.32385
  16 2   H  1S         -0.00619   0.03853  -0.03294   0.27191   0.19753
  17        2S          0.00812  -0.11913   0.10190   0.00375   0.02122
  18        3PX        -0.04889   0.05119  -0.07466   0.05714  -0.00600
  19        3PY        -0.17292  -0.03475  -0.05119  -0.04577  -0.34255
  20        3PZ         0.11238   0.19498  -0.15365  -0.14776   0.10173
  21 3   H  1S         -0.01331  -0.04779  -0.01688   0.27191  -0.54958
  22        2S          0.01744   0.14782   0.05223   0.00375  -0.05904
  23        3PX        -0.15197   0.02967  -0.05915  -0.01414  -0.00625
  24        3PY         0.04248  -0.11212  -0.05070   0.04044  -0.35023
  25        3PZ         0.17923  -0.22040  -0.07450  -0.15924  -0.08306
  26 4   H  1S          0.01952   0.00928   0.04984   0.27190   0.35205
  27        2S         -0.02555  -0.02868  -0.15412   0.00376   0.03782
  28        3PX         0.06579   0.03023  -0.06818  -0.05378   0.01460
  29        3PY        -0.03545  -0.05325  -0.00723  -0.06343  -0.33034
  30        3PZ        -0.26299   0.05338   0.24969  -0.14240   0.13783
  31 5   H  1S         -0.00001  -0.00001  -0.00001  -0.30270   0.00000
  32        2S          0.00004   0.00002   0.00004   0.60768   0.00001
  33        3PX         0.16133  -0.24769   0.45037  -0.00754   0.00022
  34        3PY         0.19814   0.44620   0.24329  -0.04810  -0.09723
  35        3PZ        -0.03419  -0.06235  -0.04804  -0.31425   0.01487
  36 6   H  1S          0.00000   0.00000   0.00000   0.34197   0.00000
  37        2S         -0.00001  -0.00001  -0.00002  -0.50642  -0.00001
  38        3PX         0.05885  -0.32570   0.59221   0.00817   0.00053
  39        3PY         0.07227   0.58673   0.31991   0.05210  -0.23101
  40        3PZ        -0.01247  -0.08198  -0.06317   0.34045   0.03534
                          26        27        28        29        30
                        (A)--V    (A)--V    (A)--V    (A)--V    (A)--V
     EIGENVALUES --     2.31018   2.31863   2.58036   2.58036   2.82349
   1 1   C  1S          0.00000   0.00000   0.00000   0.00000   0.03429
   2        2S          0.00000   0.00000   0.00000   0.00000   0.22395
   3        2PX        -0.09435   0.00000  -0.03201  -0.09892  -0.00303
   4        2PY         0.00013   0.00000  -0.09769   0.03200  -0.01933
   5        2PZ         0.00224   0.00000   0.01572  -0.00252  -0.12630
   6        3S          0.00000   0.00000  -0.00001   0.00000  -0.82277
   7        3PX         0.67899  -0.00001   0.00882   0.02725  -0.01954
   8        3PY        -0.00090   0.00001   0.02691  -0.00882  -0.12469
   9        3PZ        -0.01615   0.00000  -0.00433   0.00070  -0.81481
  10        4XX         0.20658  -0.00001  -0.12061   0.10515  -0.07956
  11        4YY        -0.20983   0.00001   0.02126  -0.08597  -0.07317
  12        4ZZ         0.00325   0.00000   0.09934  -0.01918   0.19995
  13        4XY        -0.51087   0.00000  -0.16236  -0.18428   0.00119
  14        4XZ        -0.20170   0.00000  -0.08932  -0.33789   0.00775
  15        4YZ         0.04970   0.00000  -0.35854   0.13710   0.04942
  16 2   H  1S         -0.52056   0.00001   0.00897  -0.18876   0.06364
  17        2S         -0.05592   0.00000  -0.00705   0.14842  -0.01780
  18        3PX        -0.33896  -0.20471   0.05731  -0.01744   0.16255
  19        3PY        -0.02679  -0.53638   0.14312   0.10286   0.03604
  20        3PZ        -0.11735   0.08700  -0.04977   0.54249   0.60475
  21 3   H  1S          0.08921  -0.00001  -0.16796   0.08662   0.06364
  22        2S          0.00958   0.00000   0.13207  -0.06811  -0.01780
  23        3PX        -0.35575   0.57280   0.08911   0.13167  -0.01135
  24        3PY         0.00004   0.09120   0.05490  -0.00003   0.24636
  25        3PZ         0.03073  -0.02770   0.48579  -0.25911   0.57673
  26 4   H  1S          0.43135   0.00000   0.15899   0.10215   0.06364
  27        2S          0.04634   0.00000  -0.12501  -0.08032  -0.01779
  28        3PX        -0.34003  -0.36807  -0.08893   0.06345  -0.10805
  29        3PY         0.02813   0.44516  -0.02253  -0.16031  -0.00705
  30        3PZ         0.11122  -0.05930  -0.46425  -0.27884   0.61784
  31 5   H  1S          0.00000   0.00000   0.00001   0.00000   0.18016
  32        2S          0.00000   0.00000   0.00000   0.00000   0.97621
  33        3PX        -0.09833   0.00000  -0.13535  -0.41831  -0.00395
  34        3PY         0.00013   0.00000  -0.41313   0.13533  -0.02521
  35        3PZ         0.00234   0.00000   0.06647  -0.01068  -0.16469
  36 6   H  1S          0.00000   0.00000   0.00000   0.00000  -0.02505
  37        2S          0.00000   0.00000   0.00000   0.00000  -0.34932
  38        3PX        -0.23363   0.00000   0.17028   0.52627   0.00516
  39        3PY         0.00031   0.00000   0.51975  -0.17025   0.03286
  40        3PZ         0.00556   0.00000  -0.08363   0.01343   0.21470
                          31        32        33        34        35
                        (A)--V    (A)--V    (A)--V    (A)--V    (A)--V
     EIGENVALUES --     2.85989   2.96132   2.96132   3.16592   3.16592
   1 1   C  1S         -0.05634   0.00000   0.00000   0.00000   0.00000
   2        2S         -0.04322   0.00000   0.00000   0.00000   0.00000
   3        2PX         0.00065  -0.08065  -0.06909  -0.13964   0.12019
   4        2PY         0.00416   0.06860  -0.07950  -0.11834  -0.13850
   5        2PZ         0.02720  -0.00856   0.01382   0.02146   0.01831
   6        3S          1.09185   0.00000  -0.00007   0.00002   0.00000
   7        3PX         0.00957  -0.42329  -0.36262  -0.21141   0.18196
   8        3PY         0.06113   0.36006  -0.41724  -0.17916  -0.20969
   9        3PZ         0.39959  -0.04495   0.07252   0.03249   0.02773
  10        4XX        -0.31530   0.19769  -0.09050  -0.07417  -0.43444
  11        4YY        -0.29396  -0.14564   0.01462   0.20101   0.53195
  12        4ZZ         0.61801  -0.05205   0.07589  -0.12683  -0.09751
  13        4XY         0.00395  -0.12763  -0.27684  -0.39426   0.05778
  14        4XZ         0.02585  -0.24660  -0.17843   0.54703  -0.41394
  15        4YZ         0.16500   0.25052  -0.25288   0.38465   0.38531
  16 2   H  1S          0.02222  -0.03627  -0.01315   0.00867  -0.01587
  17        2S         -0.18093   0.40414   0.14660   0.12762  -0.23376
  18        3PX         0.19105  -0.11633   0.13876   0.05905   0.36265
  19        3PY        -0.06372  -0.08200   0.44441   0.54105   0.24254
  20        3PZ         0.05655   0.31890   0.03877  -0.27412   0.30202
  21 3   H  1S          0.02222   0.02953  -0.02483   0.00941   0.01544
  22        2S         -0.18092  -0.32902   0.27671   0.13863   0.22740
  23        3PX        -0.03175   0.29133   0.37694   0.55952  -0.29488
  24        3PY         0.20573   0.06743   0.04232  -0.09744  -0.35295
  25        3PZ         0.02067  -0.26444   0.19232  -0.20479  -0.27729
  26 4   H  1S          0.02222   0.00674   0.03799  -0.01808   0.00043
  27        2S         -0.18095  -0.07512  -0.42328  -0.26625   0.00636
  28        3PX        -0.15567   0.28980  -0.11753  -0.23232  -0.40021
  29        3PY        -0.11895  -0.38079  -0.02858  -0.11628   0.49351
  30        3PZ         0.07329  -0.00510  -0.31074   0.41955  -0.07538
  31 5   H  1S         -0.55406   0.00000   0.00002   0.00000   0.00000
  32        2S         -0.90619   0.00000   0.00006  -0.00002   0.00000
  33        3PX         0.00738   0.53592   0.45910  -0.19419   0.16714
  34        3PY         0.04703  -0.45587   0.52825  -0.16456  -0.19261
  35        3PZ         0.30717   0.05691  -0.09187   0.02985   0.02547
  36 6   H  1S         -0.02219   0.00000   0.00000   0.00000   0.00000
  37        2S          0.55359   0.00000  -0.00003   0.00001   0.00000
  38        3PX        -0.01727  -0.32445  -0.27795   0.11996  -0.10325
  39        3PY        -0.11008   0.27599  -0.31981   0.10166   0.11898
  40        3PZ        -0.71918  -0.03446   0.05565  -0.01844  -0.01573
                          36        37        38        39        40
                        (A)--V    (A)--V    (A)--V    (A)--V    (A)--V
     EIGENVALUES --     3.56558   3.79782   3.79782   4.21130   4.91993
   1 1   C  1S         -0.13095   0.00000   0.00000  -0.13840  -0.46104
   2        2S          1.05847   0.00000   0.00000   0.69406   2.67773
   3        2PX        -0.00639  -0.06906  -0.97609   0.00838  -0.00012
   4        2PY        -0.04079   0.96537  -0.06478   0.05350  -0.00077
   5        2PZ        -0.26654  -0.14608   0.03332   0.34959  -0.00502
   6        3S          0.81442   0.00000   0.00000   0.42816   2.30453
   7        3PX        -0.00564  -0.03445  -0.48688   0.00532   0.00506
   8        3PY        -0.03597   0.48154  -0.03231   0.03391   0.03226
   9        3PZ        -0.23504  -0.07287   0.01662   0.22163   0.21082
  10        4XX         0.16418  -0.86700  -0.36791  -0.89923  -1.99333
  11        4YY         0.14424   0.73302   0.37987  -0.87612  -1.99077
  12        4ZZ        -0.70838   0.13398  -0.01196   0.11152  -1.88123
  13        4XY        -0.00370  -0.44376   1.06298   0.00429   0.00048
  14        4XZ        -0.02418   0.12471   0.31096   0.02801   0.00311
  15        4YZ        -0.15428  -0.57724  -0.06186   0.17871   0.01982
  16 2   H  1S         -0.34891   0.34234   0.74443   0.24992   0.23382
  17        2S         -0.33911   0.19296   0.41959  -0.02836  -0.37549
  18        3PX         0.65077  -0.38558  -0.94840  -0.26006  -0.26004
  19        3PY        -0.27645   0.28971   0.34191   0.10778   0.10811
  20        3PZ        -0.17316   0.08877   0.23976   0.05255   0.05463
  21 3   H  1S         -0.34891  -0.81586  -0.07574   0.24992   0.23382
  22        2S         -0.33911  -0.45985  -0.04269  -0.02836  -0.37548
  23        3PX        -0.11849  -0.17306  -0.14515   0.04688   0.04694
  24        3PY         0.65392   1.02739   0.07483  -0.26345  -0.26317
  25        3PZ        -0.29709  -0.44826  -0.03538   0.10200   0.10408
  26 4   H  1S         -0.34891   0.47353  -0.66869   0.24992   0.23382
  27        2S         -0.33911   0.26690  -0.37690  -0.02836  -0.37549
  28        3PX        -0.54632   0.42836  -0.74782   0.21759   0.21767
  29        3PY        -0.46707   0.50406  -0.53895   0.18383   0.18417
  30        3PZ        -0.11528   0.08392  -0.14152   0.02945   0.03153
  31 5   H  1S          0.22579   0.00000   0.00000   0.29407  -0.08953
  32        2S          0.22723   0.00000   0.00000  -0.18474  -0.83038
  33        3PX         0.00450   0.00452   0.06388   0.02993  -0.01330
  34        3PY         0.02866  -0.06318   0.00424   0.19089  -0.08483
  35        3PZ         0.18726   0.00956  -0.00218   1.24731  -0.55428
  36 6   H  1S         -0.13518   0.00000   0.00000  -0.51062   0.27001
  37        2S         -0.14699   0.00000   0.00000  -0.05348   0.30444
  38        3PX         0.00842  -0.00026  -0.00363   0.02160  -0.00907
  39        3PY         0.05368   0.00359  -0.00024   0.13780  -0.05785
  40        3PZ         0.35076  -0.00054   0.00012   0.90035  -0.37795
     Beta Molecular Orbital Coefficients.
                           1         2         3         4         5
                        (A)--O    (A)--O    (A)--O    (A)--O    (A)--O
     EIGENVALUES --   -11.22246  -0.91014  -0.56456  -0.56456  -0.53171
   1 1   C  1S          0.99609  -0.18794   0.00000   0.00000   0.02679
   2        2S          0.02629   0.34833   0.00000   0.00000  -0.05998
   3        2PX         0.00000  -0.00115   0.39512  -0.15263   0.00509
   4        2PY        -0.00002  -0.00733   0.14950   0.39123   0.03247
   5        2PZ        -0.00014  -0.04790  -0.03235  -0.05621   0.21222
   6        3S         -0.01401   0.32882   0.00000   0.00000  -0.12562
   7        3PX        -0.00002  -0.00001   0.18602  -0.07186   0.00174
   8        3PY        -0.00016  -0.00005   0.07038   0.18419   0.01112
   9        3PZ        -0.00104  -0.00030  -0.01523  -0.02646   0.07266
  10        4XX        -0.00079   0.00737   0.00208  -0.02201  -0.00841
  11        4YY        -0.00082   0.00685  -0.00401   0.01779  -0.00769
  12        4ZZ        -0.00213  -0.01535   0.00193   0.00422   0.02300
  13        4XY        -0.00001  -0.00010  -0.02788  -0.00246   0.00013
  14        4XZ        -0.00004  -0.00063  -0.01133   0.00699   0.00087
  15        4YZ        -0.00024  -0.00402  -0.00450  -0.01847   0.00555
  16 2   H  1S         -0.00009   0.15326   0.21387  -0.19102  -0.06996
  17        2S          0.00240   0.06034   0.18159  -0.16219  -0.06122
  18        3PX         0.00023  -0.01211  -0.00625   0.00874   0.00448
  19        3PY        -0.00009   0.00504   0.00770   0.00138  -0.00116
  20        3PZ        -0.00003   0.00259   0.00311  -0.00412   0.00337
  21 3   H  1S         -0.00009   0.15326   0.05849   0.28073  -0.06996
  22        2S          0.00240   0.06034   0.04966   0.23836  -0.06122
  23        3PX        -0.00004   0.00219   0.00684   0.00059  -0.00069
  24        3PY         0.00024  -0.01225  -0.00106  -0.01024   0.00508
  25        3PZ        -0.00008   0.00489   0.00113   0.00698   0.00254
  26 4   H  1S         -0.00009   0.15326  -0.27236  -0.08971  -0.06995
  27        2S          0.00240   0.06034  -0.23125  -0.07617  -0.06122
  28        3PX        -0.00019   0.01014  -0.00713  -0.00680  -0.00356
  29        3PY        -0.00016   0.00859  -0.00911   0.00238  -0.00244
  30        3PZ        -0.00001   0.00151  -0.00370  -0.00194   0.00376
  31 5   H  1S          0.00010   0.09823   0.00000   0.00000   0.33307
  32        2S          0.00425   0.04218   0.00000   0.00000   0.47504
  33        3PX         0.00001  -0.00014   0.00432  -0.00167   0.00011
  34        3PY         0.00005  -0.00088   0.00163   0.00428   0.00068
  35        3PZ         0.00032  -0.00573  -0.00035  -0.00061   0.00441
  36 6   H  1S         -0.00026   0.03229   0.00000   0.00000   0.17476
  37        2S         -0.00139   0.01697   0.00000   0.00000   0.09043
  38        3PX         0.00001  -0.00012   0.00093  -0.00036  -0.00041
  39        3PY         0.00004  -0.00078   0.00035   0.00092  -0.00262
  40        3PZ         0.00024  -0.00507  -0.00008  -0.00013  -0.01713
                           6         7         8         9        10
                        (A)--V    (A)--V    (A)--V    (A)--V    (A)--V
     EIGENVALUES --     0.10750   0.26729   0.32593   0.32593   0.40621
   1 1   C  1S          0.06084  -0.14397   0.00000   0.00000   0.05749
   2        2S         -0.08153   0.09175   0.00000   0.00000  -0.01993
   3        2PX        -0.00762  -0.00344   0.04203  -0.29757  -0.00313
   4        2PY        -0.04863  -0.02198  -0.29438  -0.04049  -0.01999
   5        2PZ        -0.31777  -0.14363   0.04404   0.01333  -0.13067
   6        3S         -0.46990   2.57654   0.00000   0.00000  -1.04646
   7        3PX        -0.01102  -0.00983   0.21891  -1.54977  -0.03314
   8        3PY        -0.07031  -0.06274  -1.53315  -0.21089  -0.21144
   9        3PZ        -0.45947  -0.41000   0.22937   0.06944  -1.38163
  10        4XX        -0.00220  -0.00941  -0.00554   0.00216  -0.01033
  11        4YY        -0.00209  -0.00951   0.00639  -0.00179  -0.00923
  12        4ZZ         0.00239  -0.01404  -0.00086  -0.00038   0.03780
  13        4XY         0.00002  -0.00002  -0.00226  -0.00571   0.00020
  14        4XZ         0.00013  -0.00013  -0.00005   0.00467   0.00133
  15        4YZ         0.00081  -0.00082   0.00274   0.00098   0.00851
  16 2   H  1S          0.01779  -0.00677  -0.02777   0.05075  -0.06370
  17        2S          0.15076  -1.19902  -0.94208   1.72152  -0.09266
  18        3PX        -0.00240   0.00032   0.00063  -0.00812  -0.00005
  19        3PY        -0.00071  -0.00098  -0.00904  -0.00173  -0.00085
  20        3PZ        -0.01006  -0.00528   0.00129   0.00059  -0.00538
  21 3   H  1S          0.01779  -0.00677   0.05783  -0.00132  -0.06370
  22        2S          0.15076  -1.19902   1.96191  -0.04490  -0.09267
  23        3PX         0.00014  -0.00020   0.00108  -0.00938  -0.00014
  24        3PY        -0.00378  -0.00035  -0.00776  -0.00131  -0.00074
  25        3PZ        -0.00965  -0.00536   0.00131   0.00042  -0.00539
  26 4   H  1S          0.01779  -0.00677  -0.03006  -0.04942  -0.06371
  27        2S          0.15076  -1.19902  -1.01985  -1.67662  -0.09266
  28        3PX         0.00155  -0.00049   0.00194  -0.00837  -0.00019
  29        3PY        -0.00009  -0.00111  -0.00880  -0.00048  -0.00088
  30        3PZ        -0.01025  -0.00524   0.00122   0.00014  -0.00537
  31 5   H  1S         -0.02325   0.03608   0.00000   0.00000   0.24087
  32        2S         -0.06567  -0.31693   0.00000   0.00000   2.88818
  33        3PX         0.00039   0.00008   0.00068  -0.00484  -0.00005
  34        3PY         0.00250   0.00053  -0.00479  -0.00066  -0.00032
  35        3PZ         0.01636   0.00346   0.00072   0.00022  -0.00208
  36 6   H  1S          0.19141   0.04477   0.00000   0.00000   0.05620
  37        2S          0.74059   0.23582   0.00000   0.00000  -1.87015
  38        3PX        -0.00020  -0.00012   0.00080  -0.00565  -0.00006
  39        3PY        -0.00127  -0.00078  -0.00558  -0.00077  -0.00039
  40        3PZ        -0.00828  -0.00508   0.00084   0.00025  -0.00256
                          11        12        13        14        15
                        (A)--V    (A)--V    (A)--V    (A)--V    (A)--V
     EIGENVALUES --     0.71611   0.71611   0.83789   0.97571   1.14785
   1 1   C  1S          0.00000   0.00000   0.03795  -0.04245   0.00000
   2        2S          0.00000   0.00000   0.07050  -0.06615   0.00000
   3        2PX        -0.68338   0.18115  -0.02348  -0.00423  -0.24976
   4        2PY        -0.17667  -0.67635  -0.14978  -0.02701   0.76789
   5        2PZ         0.04343   0.09916  -0.97875  -0.17649  -0.11152
   6        3S          0.00000   0.00000  -0.63176   0.20411  -0.00001
   7        3PX         1.38391  -0.36685   0.02636  -0.00744   0.39599
   8        3PY         0.35777   1.36968   0.16816  -0.04750  -1.21749
   9        3PZ        -0.08795  -0.20081   1.09881  -0.31042   0.17682
  10        4XX        -0.01201   0.05681   0.03161  -0.05784   0.21469
  11        4YY         0.01504  -0.04708   0.02960  -0.05678  -0.18494
  12        4ZZ        -0.00304  -0.00973  -0.05612  -0.01123  -0.02975
  13        4XY         0.07076   0.01451  -0.00037   0.00020   0.04093
  14        4XZ         0.02432  -0.01302  -0.00243   0.00129  -0.04558
  15        4YZ         0.00464   0.04243  -0.01551   0.00824   0.13429
  16 2   H  1S         -0.41162   0.29356   0.21791  -0.27838   0.47553
  17        2S         -0.15659   0.11167   0.09671  -0.08208  -0.98950
  18        3PX         0.03532  -0.01572  -0.00685  -0.03104   0.09361
  19        3PY        -0.00051   0.02518   0.00226   0.01268   0.01792
  20        3PZ        -0.00481  -0.00059  -0.00222   0.00515  -0.03316
  21 3   H  1S         -0.04842  -0.50325   0.21791  -0.27838  -0.75557
  22        2S         -0.01842  -0.19144   0.09671  -0.08207   1.57221
  23        3PX         0.02084  -0.00875   0.00113   0.00556   0.01160
  24        3PY         0.00715   0.03839  -0.00741  -0.03159  -0.11933
  25        3PZ        -0.00207  -0.01061  -0.00094   0.01105   0.06274
  26 4   H  1S          0.46004   0.20969   0.21792  -0.27837   0.28004
  27        2S          0.17501   0.07977   0.09671  -0.08208  -0.58270
  28        3PX         0.03443   0.00045   0.00558   0.02592  -0.07800
  29        3PY         0.01678   0.02608   0.00424   0.02175   0.01773
  30        3PZ         0.00112  -0.00194  -0.00282   0.00239  -0.01743
  31 5   H  1S          0.00001   0.00000  -0.18096  -0.63912   0.00000
  32        2S          0.00000   0.00000   0.31644   1.17893   0.00000
  33        3PX         0.03279  -0.00869   0.00250  -0.00186  -0.00781
  34        3PY         0.00848   0.03246   0.01598  -0.01184   0.02403
  35        3PZ        -0.00208  -0.00476   0.10442  -0.07733  -0.00349
  36 6   H  1S          0.00000   0.00000   0.08699  -0.87131   0.00000
  37        2S         -0.00001  -0.00001  -0.48026   0.31940   0.00000
  38        3PX         0.02349  -0.00623  -0.00004   0.00108   0.00375
  39        3PY         0.00607   0.02325  -0.00029   0.00688  -0.01152
  40        3PZ        -0.00149  -0.00341  -0.00188   0.04497   0.00167
                          16        17        18        19        20
                        (A)--V    (A)--V    (A)--V    (A)--V    (A)--V
     EIGENVALUES --     1.14785   1.19138   1.22808   1.44283   1.65299
   1 1   C  1S          0.00000   0.04646  -0.02385  -0.12660   0.00000
   2        2S          0.00000  -1.15804   0.60146  -1.85033  -0.00001
   3        2PX        -0.77571   0.00919   0.00693  -0.00694   0.04881
   4        2PY        -0.24417   0.05863   0.04425  -0.04426  -0.03651
   5        2PZ         0.05597   0.38311   0.28914  -0.28925   0.00442
   6        3S          0.00000   2.20739  -1.52474   5.18162   0.00002
   7        3PX         1.22988  -0.02108  -0.01911   0.02334  -0.03953
   8        3PY         0.38713  -0.13452  -0.12197   0.14893   0.02956
   9        3PZ        -0.08874  -0.87902  -0.79704   0.97322  -0.00357
  10        4XX         0.03469   0.06315   0.06980  -0.13764   0.26653
  11        4YY        -0.04494   0.05705   0.06521  -0.13618  -0.33253
  12        4ZZ         0.01025  -0.20356  -0.13128  -0.07363   0.06600
  13        4XY        -0.26308  -0.00113  -0.00085   0.00027  -0.07019
  14        4XZ        -0.06433  -0.00739  -0.00557   0.00177   0.47608
  15        4YZ        -0.01837  -0.04716  -0.03555   0.01132  -0.29313
  16 2   H  1S          0.59790   0.49615  -0.09704  -0.42341  -0.04994
  17        2S         -1.24414  -1.06699   0.07426  -0.66643   0.05723
  18        3PX         0.07824   0.08621  -0.01775  -0.00440   0.07461
  19        3PY        -0.08085  -0.03127   0.01456   0.00415   0.07692
  20        3PZ        -0.02492   0.01007   0.04800   0.01524   0.25555
  21 3   H  1S          0.11287   0.49615  -0.09704  -0.42341   0.03764
  22        2S         -0.23486  -1.06698   0.07426  -0.66643  -0.04314
  23        3PX        -0.07122  -0.01477   0.00445   0.00120  -0.14170
  24        3PY         0.00676   0.09086  -0.01229  -0.00262  -0.09044
  25        3PZ        -0.00601  -0.00620   0.05157   0.01614  -0.18558
  26 4   H  1S         -0.71078   0.49615  -0.09703  -0.42341   0.01230
  27        2S          1.47901  -1.06698   0.07426  -0.66644  -0.01410
  28        3PX         0.07750  -0.07093   0.01680   0.00431  -0.12133
  29        3PY         0.10069  -0.05629   0.02006   0.00554   0.15444
  30        3PZ         0.02484   0.01766   0.04633   0.01482  -0.08702
  31 5   H  1S          0.00000  -0.39975  -1.01260  -0.00131   0.00000
  32        2S          0.00000   1.22641   2.76478  -2.55545  -0.00001
  33        3PX        -0.02427   0.00064   0.00220   0.00275   0.22128
  34        3PY        -0.00764   0.00408   0.01406   0.01753  -0.16551
  35        3PZ         0.00175   0.02665   0.09190   0.11448   0.02002
  36 6   H  1S          0.00000  -0.19316   0.73233   0.48700   0.00000
  37        2S          0.00000  -0.32818  -1.64971   0.56058   0.00000
  38        3PX         0.01164   0.00048   0.00273   0.00140   0.07750
  39        3PY         0.00366   0.00307   0.01742   0.00891  -0.05797
  40        3PZ        -0.00084   0.02004   0.11381   0.05822   0.00701
                          21        22        23        24        25
                        (A)--V    (A)--V    (A)--V    (A)--V    (A)--V
     EIGENVALUES --     1.65299   2.08588   2.08588   2.15578   2.31563
   1 1   C  1S          0.00000   0.00000   0.00000   0.04888   0.00000
   2        2S          0.00001   0.00001   0.00001  -0.02653   0.00000
   3        2PX         0.03675  -0.01848   0.07632  -0.00332   0.00000
   4        2PY         0.04813   0.07553   0.01800  -0.02119   0.00000
   5        2PZ        -0.00824  -0.01112  -0.00458  -0.13848   0.00000
   6        3S         -0.00004  -0.00003  -0.00004  -0.56171   0.00000
   7        3PX        -0.02976   0.04716  -0.19479   0.00571   0.00002
   8        3PY        -0.03898  -0.19278  -0.04593   0.03642  -0.00001
   9        3PZ         0.00666   0.02836   0.01169   0.23801   0.00000
  10        4XX        -0.10076  -0.01934  -0.00220  -0.23387   0.00001
  11        4YY         0.23504  -0.02757  -0.01670  -0.21289  -0.00001
  12        4ZZ        -0.13428   0.04692   0.01890   0.68380   0.00000
  13        4XY        -0.21783  -0.00369  -0.05345   0.00389  -0.00001
  14        4XZ         0.39200   0.04677  -0.18041   0.02543  -0.00001
  15        4YZ         0.42982  -0.18174  -0.04025   0.16226   0.00001
  16 2   H  1S         -0.01462   0.02973  -0.04363   0.24928  -0.00002
  17        2S          0.01677  -0.08391   0.12321   0.01057   0.00000
  18        3PX        -0.05535   0.03307  -0.09804   0.05639  -0.20472
  19        3PY        -0.17975  -0.05559  -0.04805  -0.04732  -0.53637
  20        3PZ         0.10766   0.17101  -0.23006  -0.15908   0.08699
  21 3   H  1S         -0.03593  -0.05265  -0.00391   0.24929   0.00001
  22        2S          0.04119   0.14866   0.01107   0.01057   0.00000
  23        3PX        -0.15133   0.01509  -0.07704  -0.01432   0.57278
  24        3PY         0.04071  -0.13891  -0.02279   0.03821   0.09121
  25        3PZ         0.19105  -0.26839  -0.01620  -0.17046  -0.02769
  26 4   H  1S          0.05057   0.02294   0.04756   0.24928   0.00000
  27        2S         -0.05794  -0.06474  -0.13428   0.01058   0.00000
  28        3PX         0.06484   0.01475  -0.08475  -0.05365  -0.36809
  29        3PY        -0.04675  -0.06264   0.00958  -0.06484   0.44518
  30        3PZ        -0.26687   0.13522   0.26186  -0.15376  -0.05930
  31 5   H  1S         -0.00001  -0.00001  -0.00001  -0.28679   0.00000
  32        2S          0.00004   0.00003   0.00003   0.51647   0.00000
  33        3PX         0.16659  -0.13109   0.54148  -0.00768   0.00000
  34        3PY         0.21820   0.53587   0.12767  -0.04898   0.00000
  35        3PZ        -0.03739  -0.07887  -0.03253  -0.32001   0.00000
  36 6   H  1S          0.00000   0.00000   0.00000   0.37047   0.00000
  37        2S         -0.00001  -0.00001  -0.00001  -0.47502   0.00000
  38        3PX         0.05835  -0.14317   0.59139   0.00790  -0.00001
  39        3PY         0.07642   0.58526   0.13944   0.05040   0.00000
  40        3PZ        -0.01310  -0.08614  -0.03553   0.32933   0.00000
                          26        27        28        29        30
                        (A)--V    (A)--V    (A)--V    (A)--V    (A)--V
     EIGENVALUES --     2.32099   2.32099   2.61069   2.61069   2.82895
   1 1   C  1S          0.00000   0.00000   0.00000   0.00000   0.03028
   2        2S          0.00000   0.00000   0.00000   0.00000   0.22021
   3        2PX        -0.00063  -0.10709  -0.02249  -0.10879  -0.00318
   4        2PY        -0.10589   0.00100  -0.10748   0.02263  -0.02028
   5        2PZ         0.01622   0.00241   0.01699  -0.00085  -0.13253
   6        3S          0.00000   0.00000  -0.00001   0.00000  -0.74401
   7        3PX         0.00409   0.69893  -0.00066  -0.00317  -0.01865
   8        3PY         0.69106  -0.00654  -0.00314   0.00066  -0.11900
   9        3PZ        -0.10585  -0.01576   0.00049  -0.00003  -0.77766
  10        4XX        -0.40275   0.20667  -0.12787   0.08788  -0.10673
  11        4YY         0.32615  -0.20925   0.02353  -0.07954  -0.09850
  12        4ZZ         0.07660   0.00258   0.10433  -0.00835   0.25325
  13        4XY        -0.25328  -0.50093  -0.13869  -0.19870   0.00153
  14        4XZ         0.04834  -0.19895  -0.05531  -0.35927   0.00998
  15        4YZ        -0.31841   0.05152  -0.38344   0.09938   0.06365
  16 2   H  1S          0.18961  -0.51219   0.02759  -0.17485   0.06557
  17        2S          0.02595  -0.07009  -0.02549   0.16155  -0.02990
  18        3PX        -0.00840  -0.34010   0.06401  -0.01743   0.17554
  19        3PY        -0.34358  -0.02250   0.14163   0.11966   0.03106
  20        3PZ         0.09825  -0.11123  -0.10779   0.51820   0.60462
  21 3   H  1S         -0.53838   0.09189  -0.16522   0.06353   0.06557
  22        2S         -0.07367   0.01257   0.15266  -0.05870  -0.02990
  23        3PX        -0.00874  -0.35603   0.07910   0.15098  -0.01362
  24        3PY        -0.35058   0.00291   0.04653   0.01099   0.25983
  25        3PZ        -0.07525   0.03013   0.49755  -0.20010   0.57414
  26 4   H  1S          0.34877   0.42031   0.13763   0.11132   0.06557
  27        2S          0.04772   0.05751  -0.12716  -0.10285  -0.02990
  28        3PX         0.01108  -0.34127  -0.10394   0.05586  -0.11881
  29        3PY        -0.33158   0.02930  -0.00101  -0.17005  -0.01580
  30        3PZ         0.13411   0.10449  -0.41933  -0.31662   0.61885
  31 5   H  1S          0.00000   0.00000   0.00000   0.00000   0.13538
  32        2S          0.00001   0.00000   0.00000   0.00000   0.90977
  33        3PX        -0.00086  -0.14718  -0.07902  -0.38213  -0.00367
  34        3PY        -0.14553   0.00138  -0.37756   0.07950  -0.02338
  35        3PZ         0.02229   0.00332   0.05967  -0.00300  -0.15274
  36 6   H  1S          0.00000   0.00000   0.00000   0.00000  -0.01923
  37        2S         -0.00001   0.00000   0.00000   0.00000  -0.31188
  38        3PX        -0.00139  -0.23865   0.12115   0.58590   0.00401
  39        3PY        -0.23596   0.00224   0.57889  -0.12189   0.02552
  40        3PZ         0.03615   0.00539  -0.09150   0.00460   0.16675
                          31        32        33        34        35
                        (A)--V    (A)--V    (A)--V    (A)--V    (A)--V
     EIGENVALUES --     2.90483   2.97106   2.97106   3.17605   3.17605
   1 1   C  1S         -0.06072   0.00000   0.00001   0.00000   0.00000
   2        2S         -0.01653   0.00000   0.00000   0.00000   0.00000
   3        2PX         0.00099  -0.09529  -0.07904  -0.12767   0.12305
   4        2PY         0.00633   0.07850  -0.09394  -0.12121  -0.12668
[...]
      X                                                                                                                              
      X                                                                                                                              
      X                                                                                                                              
      X                                                                                                                              
      X                                                                                                                              
      X                                                                                                                              
      X                                                                                                                              
      X                                                                                                                              
      X                                                                                                                              
      X                                                                                                                              
      X                                                                                                                              
      X                                                                                                                              
      X                                                                                                                              
      X                                                                                                                              
 
 ***** Axes restored to original set *****
 -------------------------------------------------------------------
 Center     Atomic                   Forces (Hartrees/Bohr)
 Number     Number              X              Y              Z
 -------------------------------------------------------------------
    1          6          -0.015557435    0.000000324   -0.000000037
    2          1           0.001199185    0.000080750   -0.000385069
    3          1           0.001199029   -0.000374231    0.000122721
    4          1           0.001199084    0.000293017    0.000262382
    5          1           0.014495329    0.000000288    0.000000073
    6          1          -0.002535192   -0.000000147   -0.000000070
 -------------------------------------------------------------------
 Cartesian Forces:  Max     0.015557435 RMS     0.005073645
 ------------------------------------------------------------------------
           Internal Coordinate Forces (Hartree/Bohr or radian)
 Cent Atom N1     Length/X     N2     Alpha/Y      N3      Beta/Z       J
 ------------------------------------------------------------------------
   1  C        -0.015557(   1)      0.000000(   7)      0.000000(  13)
   2  H         0.001199(   2)      0.000081(   8)     -0.000385(  14)
   3  H         0.001199(   3)     -0.000374(   9)      0.000123(  15)
   4  H         0.001199(   4)      0.000293(  10)      0.000262(  16)
   5  H         0.014495(   5)      0.000000(  11)      0.000000(  17)
   6  H        -0.002535(   6)      0.000000(  12)      0.000000(  18)
 ------------------------------------------------------------------------
 Internal  Forces:  Max     0.015557435 RMS     0.005073645
 Force constants in Cartesian coordinates: 
                1             2             3             4             5
      1  0.113374D+00
      2 -0.372430D-05  0.630406D+00
      3 -0.232943D-05  0.000000D+00  0.630407D+00
      4 -0.447271D-01  0.171670D-01 -0.818630D-01  0.507215D-01
      5  0.147392D-01 -0.674043D-01  0.581853D-01 -0.164246D-01  0.623141D-01
      6 -0.702854D-01  0.581854D-01 -0.332670D+00  0.783230D-01 -0.629530D-01
      7 -0.447271D-01 -0.794782D-01  0.260643D-01  0.386216D-02  0.100040D-01
      8 -0.682378D-01 -0.316744D+00  0.857696D-01 -0.168692D-02 -0.163810D-02
      9  0.223781D-01  0.857696D-01 -0.833301D-01  0.102516D-01  0.279216D-01
     10 -0.447290D-01  0.623146D-01  0.558009D-01  0.386231D-02 -0.803473D-02
     11  0.535020D-01 -0.215962D+00 -0.143956D+00 -0.257376D-02  0.741058D-02
     12  0.479095D-01 -0.143956D+00 -0.184111D+00  0.100660D-01 -0.226971D-01
     13  0.153544D+00  0.000000D+00  0.000000D+00 -0.197141D-01 -0.403444D-03
     14  0.000000D+00 -0.359866D-01  0.000000D+00  0.367210D-02 -0.435236D-03
     15  0.000000D+00  0.000000D+00 -0.359866D-01 -0.175110D-01 -0.300602D-03
     16 -0.132735D+00  0.000000D+00  0.000000D+00  0.599530D-02  0.119585D-03
     17  0.000000D+00  0.569049D-02  0.000000D+00 -0.153826D-03 -0.247094D-03
     18  0.000000D+00  0.000000D+00  0.569048D-02  0.733291D-03 -0.156183D-03
                6             7             8             9            10
      6  0.349316D+00
      7 -0.280395D-02  0.507214D-01
      8 -0.207078D-02  0.760413D-01  0.332084D+00
      9 -0.449797D-02 -0.249371D-01 -0.927975D-01  0.795449D-01
     10 -0.658680D-02  0.386229D-02 -0.743032D-02 -0.726169D-02  0.507232D-01
     11  0.729502D-02  0.972196D-02 -0.149767D-01 -0.202204D-01 -0.596201D-01
     12 -0.135468D-01 -0.366501D-02  0.977173D-02  0.884052D-02 -0.533881D-01
     13  0.192321D-02 -0.197140D-01  0.186716D-02 -0.612456D-03 -0.197139D-01
     14 -0.300473D-03 -0.170010D-01  0.852300D-03 -0.443026D-03  0.133288D-01
     15  0.934567D-03  0.557532D-02 -0.442912D-03 -0.353001D-03  0.119356D-01
     16 -0.570075D-03  0.599526D-02 -0.553453D-03  0.181539D-03  0.599516D-02
     17 -0.156185D-03  0.711901D-03  0.422227D-03 -0.230232D-03 -0.558262D-03
     18  0.464974D-03 -0.233498D-03 -0.230235D-03 -0.204341D-03 -0.499885D-03
               11            12            13            14            15
     11  0.223045D+00
     12  0.155751D+00  0.188583D+00
     13 -0.146413D-02 -0.131107D-02 -0.140851D+00
     14  0.332022D-03  0.743496D-03  0.000000D+00  0.473100D-01
     15  0.743511D-03  0.167493D-03  0.000000D+00  0.000000D+00  0.473100D-01
     16  0.434001D-03  0.388635D-03  0.464487D-01  0.000000D+00  0.000000D+00
     17  0.151676D-03  0.386419D-03  0.000000D+00 -0.120725D-01  0.000000D+00
     18  0.386419D-03  0.661809D-04  0.000000D+00  0.000000D+00 -0.120725D-01
               16            17            18
     16  0.683003D-01
     17  0.000000D+00  0.605524D-02
     18  0.000000D+00  0.000000D+00  0.605524D-02
 Force constants in internal coordinates: 
                1             2             3             4             5
      1  0.113374D+00
      2 -0.447271D-01  0.507215D-01
      3 -0.447271D-01  0.386216D-02  0.507214D-01
      4 -0.447290D-01  0.386231D-02  0.386229D-02  0.507232D-01
      5  0.153544D+00 -0.197141D-01 -0.197140D-01 -0.197139D-01 -0.140851D+00
      6 -0.132735D+00  0.599530D-02  0.599526D-02  0.599516D-02  0.464487D-01
      7 -0.372430D-05  0.171670D-01 -0.794782D-01  0.623146D-01  0.000000D+00
      8  0.147392D-01 -0.164246D-01  0.100040D-01 -0.803473D-02 -0.403444D-03
      9 -0.682378D-01 -0.168692D-02  0.760413D-01 -0.743032D-02  0.186716D-02
     10  0.535020D-01 -0.257376D-02  0.972196D-02 -0.596201D-01 -0.146413D-02
     11  0.000000D+00  0.367210D-02 -0.170010D-01  0.133288D-01  0.000000D+00
     12  0.000000D+00 -0.153826D-03  0.711901D-03 -0.558262D-03  0.000000D+00
     13 -0.232943D-05 -0.818630D-01  0.260643D-01  0.558009D-01  0.000000D+00
     14 -0.702854D-01  0.783230D-01 -0.280395D-02 -0.658680D-02  0.192321D-02
     15  0.223781D-01  0.102516D-01 -0.249371D-01 -0.726169D-02 -0.612456D-03
     16  0.479095D-01  0.100660D-01 -0.366501D-02 -0.533881D-01 -0.131107D-02
     17  0.000000D+00 -0.175110D-01  0.557532D-02  0.119356D-01  0.000000D+00
     18  0.000000D+00  0.733291D-03 -0.233498D-03 -0.499885D-03  0.000000D+00
                6             7             8             9            10
      6  0.683003D-01
      7  0.000000D+00  0.630406D+00
      8  0.119585D-03 -0.674043D-01  0.623141D-01
      9 -0.553453D-03 -0.316744D+00 -0.163810D-02  0.332084D+00
     10  0.434001D-03 -0.215962D+00  0.741058D-02 -0.149767D-01  0.223045D+00
     11  0.000000D+00 -0.359866D-01 -0.435236D-03  0.852300D-03  0.332022D-03
     12  0.000000D+00  0.569049D-02 -0.247094D-03  0.422227D-03  0.151676D-03
     13  0.000000D+00  0.000000D+00  0.581853D-01  0.857696D-01 -0.143956D+00
     14 -0.570075D-03  0.581854D-01 -0.629530D-01 -0.207078D-02  0.729502D-02
     15  0.181539D-03  0.857696D-01  0.279216D-01 -0.927975D-01 -0.202204D-01
     16  0.388635D-03 -0.143956D+00 -0.226971D-01  0.977173D-02  0.155751D+00
     17  0.000000D+00  0.000000D+00 -0.300602D-03 -0.442912D-03  0.743511D-03
     18  0.000000D+00  0.000000D+00 -0.156183D-03 -0.230235D-03  0.386419D-03
               11            12            13            14            15
     11  0.473100D-01
     12 -0.120725D-01  0.605524D-02
     13  0.000000D+00  0.000000D+00  0.630407D+00
     14 -0.300473D-03 -0.156185D-03 -0.332670D+00  0.349316D+00
     15 -0.443026D-03 -0.230232D-03 -0.833301D-01 -0.449797D-02  0.795449D-01
     16  0.743496D-03  0.386419D-03 -0.184111D+00 -0.135468D-01  0.884052D-02
     17  0.000000D+00  0.000000D+00 -0.359866D-01  0.934567D-03 -0.353001D-03
     18  0.000000D+00  0.000000D+00  0.569048D-02  0.464974D-03 -0.204341D-03
               16            17            18
     16  0.188583D+00
     17  0.167493D-03  0.473100D-01
     18  0.661809D-04 -0.120725D-01  0.605524D-02
 Leave Link  716 at Wed Apr 10 03:14:03 2013, MaxMem=    6291456 cpu:       0.0
 (Enter /soft/g03/g03/l103.exe)

 GradGradGradGradGradGradGradGradGradGradGradGradGradGradGradGradGradGrad
 Berny optimization.
 Search for a local minimum.
 Step number   1 out of a maximum of   2
 All quantities printed in internal units (Hartrees-Bohrs-Radians)
 Second derivative matrix not updated -- analytic derivatives used.
 The second derivative matrix:
                          X1        Y1        Z1        X2        Y2
           X1           0.11337
           Y1           0.00000   0.63041
           Z1           0.00000   0.00000   0.63041
           X2          -0.04473   0.01717  -0.08186   0.05072
           Y2           0.01474  -0.06740   0.05819  -0.01642   0.06231
           Z2          -0.07029   0.05819  -0.33267   0.07832  -0.06295
           X3          -0.04473  -0.07948   0.02606   0.00386   0.01000
           Y3          -0.06824  -0.31674   0.08577  -0.00169  -0.00164
           Z3           0.02238   0.08577  -0.08333   0.01025   0.02792
           X4          -0.04473   0.06231   0.05580   0.00386  -0.00803
           Y4           0.05350  -0.21596  -0.14396  -0.00257   0.00741
           Z4           0.04791  -0.14396  -0.18411   0.01007  -0.02270
           X5           0.15354   0.00000   0.00000  -0.01971  -0.00040
           Y5           0.00000  -0.03599   0.00000   0.00367  -0.00044
           Z5           0.00000   0.00000  -0.03599  -0.01751  -0.00030
           X6          -0.13273   0.00000   0.00000   0.00600   0.00012
           Y6           0.00000   0.00569   0.00000  -0.00015  -0.00025
           Z6           0.00000   0.00000   0.00569   0.00073  -0.00016
                          Z2        X3        Y3        Z3        X4
           Z2           0.34932
           X3          -0.00280   0.05072
           Y3          -0.00207   0.07604   0.33208
           Z3          -0.00450  -0.02494  -0.09280   0.07954
           X4          -0.00659   0.00386  -0.00743  -0.00726   0.05072
           Y4           0.00730   0.00972  -0.01498  -0.02022  -0.05962
           Z4          -0.01355  -0.00367   0.00977   0.00884  -0.05339
           X5           0.00192  -0.01971   0.00187  -0.00061  -0.01971
           Y5          -0.00030  -0.01700   0.00085  -0.00044   0.01333
           Z5           0.00093   0.00558  -0.00044  -0.00035   0.01194
           X6          -0.00057   0.00600  -0.00055   0.00018   0.00600
           Y6          -0.00016   0.00071   0.00042  -0.00023  -0.00056
           Z6           0.00046  -0.00023  -0.00023  -0.00020  -0.00050
                          Y4        Z4        X5        Y5        Z5
           Y4           0.22304
           Z4           0.15575   0.18858
           X5          -0.00146  -0.00131  -0.14085
           Y5           0.00033   0.00074   0.00000   0.04731
           Z5           0.00074   0.00017   0.00000   0.00000   0.04731
           X6           0.00043   0.00039   0.04645   0.00000   0.00000
           Y6           0.00015   0.00039   0.00000  -0.01207   0.00000
           Z6           0.00039   0.00007   0.00000   0.00000  -0.01207
                          X6        Y6        Z6
           X6           0.06830
           Y6           0.00000   0.00606
           Z6           0.00000   0.00000   0.00606
     Eigenvalues ---   -0.24053   0.01227   0.01227   0.05918   0.07120
     Eigenvalues ---    0.07120   0.11500   0.11500   0.18618   0.43840
     Eigenvalues ---    0.83391   0.83392
 Eigenvalue   1 out of range, new value =    0.240527 Eigenvector:
                           1
           X1          -0.36074
           Y1           0.00000
           Z1           0.00000
           X2           0.07867
           Y2           0.01129
           Z2          -0.05381
           X3           0.07867
           Y3          -0.05225
           Z3           0.01713
           X4           0.07867
           Y4           0.04096
           Z4           0.03668
           X5           0.88618
           Y5           0.00000
           Z5           0.00000
           X6          -0.23856
           Y6           0.00000
           Z6           0.00000
 Angle between quadratic step and forces=  19.53 degrees.
 Linear search not attempted -- first point.
 TrRot= -0.010658  0.000001  0.000000  0.000000  0.000000  0.000000
 Variable       Old X    -DE/DX   Delta X   Delta X   Delta X     New X
                                 (Linear)    (Quad)   (Total)
    X1        0.48452  -0.01556   0.00000  -0.04412  -0.05478   0.42975
    Y1        0.00000   0.00000   0.00000   0.00000   0.00000   0.00000
    Z1        0.00000   0.00000   0.00000   0.00000   0.00000   0.00000
    X2        0.98448   0.00120   0.00000   0.01223   0.00157   0.98606
    Y2       -0.40699   0.00008   0.00000   0.00136   0.00136  -0.40563
    Z2        1.94081  -0.00039   0.00000  -0.00649  -0.00649   1.93432
    X3        0.98448   0.00120   0.00000   0.01223   0.00158   0.98606
    Y3        1.88429  -0.00037   0.00000  -0.00630  -0.00630   1.87799
    Z3       -0.61793   0.00012   0.00000   0.00206   0.00207  -0.61587
    X4        0.98451   0.00120   0.00000   0.01222   0.00156   0.98607
    Y4       -1.47729   0.00029   0.00000   0.00494   0.00494  -1.47235
    Z4       -1.32287   0.00026   0.00000   0.00442   0.00442  -1.31845
    X5       -2.05058   0.01450   0.00000   0.06920   0.05854  -1.99203
    Y5       -0.00001   0.00000   0.00000   0.00001   0.00001   0.00000
    Z5       -0.00001   0.00000   0.00000   0.00000   0.00000   0.00000
    X6       -3.81003  -0.00254   0.00000   0.00218  -0.00848  -3.81851
    Y6        0.00000   0.00000   0.00000  -0.00001  -0.00001  -0.00001
    Z6        0.00000   0.00000   0.00000  -0.00001  -0.00001  -0.00001
         Item               Value     Threshold  Converged?
 Maximum Force            0.015557     0.000450     NO 
 RMS     Force            0.005074     0.000300     NO 
 Maximum Displacement     0.058545     0.001800     NO 
 RMS     Displacement     0.019205     0.001200     NO 
 Predicted change in Energy=-2.434291D-03
 GradGradGradGradGradGradGradGradGradGradGradGradGradGradGradGradGradGrad

 Leave Link  103 at Wed Apr 10 03:14:03 2013, MaxMem=    6291456 cpu:       0.0
 (Enter /soft/g03/g03/l9999.exe)

 Test job not archived.
 1\1\GINC-AN175\Freq\UMP2-FC\6-31G(d,p)\C1H5(2)\SCANNE04\10-Apr-2013\0\
 \#P MP2 6-31G** IOP(6/7=3) GFINPUT POP=FULL # FREQ\\job\\0,2\C,0.25639
 81818,0.0000000909,0.0000000909\H,0.5209671818,-0.2153699091,1.0270310
 909\H,0.5209661818,0.9971220909,-0.3269959091\H,0.5209791818,-0.781745
 9091,-0.7000309091\H,-1.0851198182,-0.0000069091,-0.0000039091\H,-2.01
 61818182,0.0000000909,-0.0000009091\\Version=AM64L-G03RevC.02\State=2-
 A\HF=-40.661914\MP2=-40.8283081\PUHF=-40.6693648\PMP2-0=-40.8333658\S2
 =0.787702\S2-1=0.763369\S2A=0.7503\RMSD=1.363e-09\RMSF=5.074e-03\Dipol
 e=0.2827679,0.0000008,0.0000007\DipoleDeriv=0.1784067,0.0000006,0.,0.0
 000007,0.05828,0.,0.0000003,0.,0.0582796,-0.0010353,0.0101887,-0.04858
 58,0.0045215,0.0497832,0.0254807,-0.0215631,0.0254809,-0.0663837,-0.00
 10352,-0.0471707,0.0154694,-0.0209351,-0.0594096,0.037561,0.0068652,0.
 0375607,0.0428089,-0.0010356,0.0369834,0.0331176,0.0164134,-0.0152738,
 -0.0630416,0.0146978,-0.0630416,-0.0013252,-0.1926488,-0.0000024,-0.00
 00014,-0.0000002,0.0023878,0.,-0.0000001,0.,0.0023879,0.0173482,0.0000
 004,0.0000002,-0.0000003,-0.0357676,0.,-0.0000001,0.,-0.0357676\Polar=
 28.4031671,-0.0000437,12.5692687,-0.0000233,-0.0000042,12.5692639\PG=C
 01 [X(C1H5)]\NImag=1\\0.11337388,-0.00000372,0.63040635,-0.00000233,0.
 00000069,0.63040735,-0.04472713,0.01716700,-0.08186296,0.05072148,0.01
 473919,-0.06740426,0.05818531,-0.01642460,0.06231412,-0.07028538,0.058
 18539,-0.33267034,0.07832299,-0.06295298,0.34931553,-0.04472713,-0.079
 47821,0.02606426,0.00386216,0.01000400,-0.00280395,0.05072138,-0.06823
 781,-0.31674365,0.08576965,-0.00168692,-0.00163810,-0.00207078,0.07604
 134,0.33208393,0.02237812,0.08576956,-0.08333012,0.01025162,0.02792157
 ,-0.00449797,-0.02493713,-0.09279745,0.07954491,-0.04472898,0.06231458
 ,0.05580088,0.00386231,-0.00803473,-0.00658680,0.00386229,-0.00743032,
 -0.00726169,0.05072316,0.05350202,-0.21596233,-0.14395567,-0.00257376,
 0.00741058,0.00729502,0.00972196,-0.01497670,-0.02022042,-0.05962010,0
 .22304475,0.04790949,-0.14395566,-0.18411080,0.01006603,-0.02269712,-0
 .01354676,-0.00366501,0.00977173,0.00884052,-0.05338807,0.15575113,0.1
 8858336,0.15354411,0.00000089,0.00000045,-0.01971411,-0.00040344,0.001
 92321,-0.01971396,0.00186716,-0.00061246,-0.01971394,-0.00146413,-0.00
 131107,-0.14085080,-0.00000065,-0.03598660,0.,0.00367210,-0.00043524,-
 0.00030047,-0.01700100,0.00085230,-0.00044303,0.01332883,0.00033202,0.
 00074350,0.00000008,0.04731005,-0.00000032,0.,-0.03598657,-0.01751097,
 -0.00030060,0.00093457,0.00557532,-0.00044291,-0.00035300,0.01193558,0
 .00074351,0.00016749,0.00000011,0.,0.04731004,-0.13273475,-0.00000054,
 -0.00000030,0.00599530,0.00011958,-0.00057007,0.00599526,-0.00055345,0
 .00018154,0.00599516,0.00043400,0.00038864,0.04644869,0.00000063,0.000
 00028,0.06830034,0.00000097,0.00569049,0.00000001,-0.00015383,-0.00024
 709,-0.00015619,0.00071190,0.00042223,-0.00023023,-0.00055826,0.000151
 68,0.00038642,-0.00000056,-0.01207254,0.,-0.00000022,0.00605524,0.0000
 0042,0.00000001,0.00569048,0.00073329,-0.00015618,0.00046497,-0.000233
 50,-0.00023023,-0.00020434,-0.00049989,0.00038642,0.00006618,-0.000000
 25,0.,-0.01207254,-0.00000008,0.,0.00605524\\0.01555743,-0.00000032,0.
 00000004,-0.00119919,-0.00008075,0.00038507,-0.00119903,0.00037423,-0.
 00012272,-0.00119908,-0.00029302,-0.00026238,-0.01449533,-0.00000029,-
 0.00000007,0.00253519,0.00000015,0.00000007\\\@


 FLOATING POINT NUMBERS ARE LIKE SANDPILES:
 EVERY TIME THAT YOU MOVE ONE, YOU LOSE A LITTLE SAND 
 AND YOU PICK UP A LITTLE DIRT.
 Job cpu time:  0 days  0 hours  0 minutes  9.6 seconds.
 File lengths (MBytes):  RWF=     54 Int=      0 D2E=      0 Chk=      6 Scr=      1
 Normal termination of Gaussian 03 at Wed Apr 10 03:14:03 2013.
total 36
drwx------  2 scanne04 2013007  4096 Apr 10 03:14 .
drwxrwxrwt 90 root     root    28672 Apr 10 03:13 ..
-rw-r--r--  1 scanne04 2013007   394 Apr 10 03:13 1.r_0.099.inp
/local/run/antares-adm.114833.0
