 Entering Gaussian System, Link 0=g09
 Initial command:
 /apps/gaussian/g09/l1.exe /scratch_l/henon/3Rfreq_27578/Gau-27594.inp -scrdir=/scratch_l/henon/3Rfreq_27578/
 Entering Link 1 = /apps/gaussian/g09/l1.exe PID=     27595.
  
 Copyright (c) 1988,1990,1992,1993,1995,1998,2003,2009, Gaussian, Inc.
                  All Rights Reserved.
  
 This is part of the Gaussian(R) 09 program.  It is based on
 the Gaussian(R) 03 system (copyright 2003, Gaussian, Inc.),
 the Gaussian(R) 98 system (copyright 1998, Gaussian, Inc.),
 the Gaussian(R) 94 system (copyright 1995, Gaussian, Inc.),
 the Gaussian 92(TM) system (copyright 1992, Gaussian, Inc.),
 the Gaussian 90(TM) system (copyright 1990, Gaussian, Inc.),
 the Gaussian 88(TM) system (copyright 1988, Gaussian, Inc.),
 the Gaussian 86(TM) system (copyright 1986, Carnegie Mellon
 University), and the Gaussian 82(TM) system (copyright 1983,
 Carnegie Mellon University). Gaussian is a federally registered
 trademark of Gaussian, Inc.
  
 This software contains proprietary and confidential information,
 including trade secrets, belonging to Gaussian, Inc.
  
 This software is provided under written license and may be
 used, copied, transmitted, or stored only in accord with that
 written license.
  
 The following legend is applicable only to US Government
 contracts under FAR:
  
                    RESTRICTED RIGHTS LEGEND
  
 Use, reproduction and disclosure by the US Government is
 subject to restrictions as set forth in subparagraphs (a)
 and (c) of the Commercial Computer Software - Restricted
 Rights clause in FAR 52.227-19.
  
 Gaussian, Inc.
 340 Quinnipiac St., Bldg. 40, Wallingford CT 06492
  
  
 ---------------------------------------------------------------
 Warning -- This program may not be used in any manner that
 competes with the business of Gaussian, Inc. or will provide
 assistance to any competitor of Gaussian, Inc.  The licensee
 of this program is prohibited from giving any competitor of
 Gaussian, Inc. access to this program.  By using this program,
 the user acknowledges that Gaussian, Inc. is engaged in the
 business of creating and licensing software in the field of
 computational chemistry and represents and warrants to the
 licensee that it is not a competitor of Gaussian, Inc. and that
 it will not use this program in any manner prohibited above.
 ---------------------------------------------------------------
  

 Cite this work as:
 Gaussian 09, Revision A.02,
 M. J. Frisch, G. W. Trucks, H. B. Schlegel, G. E. Scuseria, 
 M. A. Robb, J. R. Cheeseman, G. Scalmani, V. Barone, B. Mennucci, 
 G. A. Petersson, H. Nakatsuji, M. Caricato, X. Li, H. P. Hratchian, 
 A. F. Izmaylov, J. Bloino, G. Zheng, J. L. Sonnenberg, M. Hada, 
 M. Ehara, K. Toyota, R. Fukuda, J. Hasegawa, M. Ishida, T. Nakajima, 
 Y. Honda, O. Kitao, H. Nakai, T. Vreven, J. A. Montgomery, Jr., 
 J. E. Peralta, F. Ogliaro, M. Bearpark, J. J. Heyd, E. Brothers, 
 K. N. Kudin, V. N. Staroverov, R. Kobayashi, J. Normand, 
 K. Raghavachari, A. Rendell, J. C. Burant, S. S. Iyengar, J. Tomasi, 
 M. Cossi, N. Rega, J. M. Millam, M. Klene, J. E. Knox, J. B. Cross, 
 V. Bakken, C. Adamo, J. Jaramillo, R. Gomperts, R. E. Stratmann, 
 O. Yazyev, A. J. Austin, R. Cammi, C. Pomelli, J. W. Ochterski, 
 R. L. Martin, K. Morokuma, V. G. Zakrzewski, G. A. Voth, 
 P. Salvador, J. J. Dannenberg, S. Dapprich, A. D. Daniels, 
 O. Farkas, J. B. Foresman, J. V. Ortiz, J. Cioslowski, 
 and D. J. Fox, Gaussian, Inc., Wallingford CT, 2009.
 
 ******************************************
 Gaussian 09:  AM64L-G09RevA.02 11-Jun-2009
                29-Apr-2014 
 ******************************************
 %NPROC=12
 Will use up to   12 processors via shared memory.
 %MEM=500MB
 --------------------------------------------------
 #P M06 6-311G** FREQ # GFINPUT IOP(6/7=3) POP=FULL
 --------------------------------------------------
 1/10=4,30=1,38=1/1,3;
 2/12=2,17=6,18=5,40=1/2;
 3/5=4,6=6,7=101,11=2,16=1,24=10,25=1,30=1,71=2,74=-54/1,2,3;
 4//1;
 5/5=2,38=5,98=1/2;
 8/6=4,10=90,11=11/1;
 11/6=1,8=1,9=11,15=111,16=1/1,2,10;
 10/6=1/2;
 6/7=3,18=1,28=1/1;
 7/8=1,10=1,25=1/1,2,3,16;
 1/10=4,30=1/3;
 99//99;
 Leave Link    1 at Tue Apr 29 14:50:48 2014, MaxMem=   65536000 cpu:       0.3
 (Enter /apps/gaussian/g09/l101.exe)
 --------------------
 RC, from TS 3reverse
 --------------------
 Symbolic Z-matrix:
 Charge =  0 Multiplicity = 2
 7                    -0.10694  -0.06224   0.09531 
 7                    -0.23579  -0.02355   1.21914 
 7                     0.28645  -0.01303  -1.07727 
 1                    -0.49288  -0.01914  -1.73314 
 1                     1.27485   1.39214  -1.56227 
 
 NAtoms=      5 NQM=      5 NQMF=      0 NMic=      0 NMicF=      0 NTot=      5.
                    Isotopes and Nuclear Properties:
 (Nuclear quadrupole moments (NQMom) in fm**2, nuclear magnetic moments (NMagM)
  in nuclear magnetons)

  Atom         1           2           3           4           5
 IAtWgt=          14          14          14           1           1
 AtmWgt=  14.0030740  14.0030740  14.0030740   1.0078250   1.0078250
 NucSpn=           2           2           2           1           1
 AtZEff=   0.0000000   0.0000000   0.0000000   0.0000000   0.0000000
 NQMom=    2.0440000   2.0440000   2.0440000   0.0000000   0.0000000
 NMagM=    0.4037610   0.4037610   0.4037610   2.7928460   2.7928460
 Leave Link  101 at Tue Apr 29 14:50:48 2014, MaxMem=   65536000 cpu:       0.5
 (Enter /apps/gaussian/g09/l103.exe)

 GradGradGradGradGradGradGradGradGradGradGradGradGradGradGradGradGradGrad
 Berny optimization.
 Initialization pass.
 Trust Radius=3.00D-01 FncErr=1.00D-07 GrdErr=1.00D-07
 Number of steps in this run=   2 maximum allowed number of steps=   2.
 GradGradGradGradGradGradGradGradGradGradGradGradGradGradGradGradGradGrad

 Leave Link  103 at Tue Apr 29 14:50:48 2014, MaxMem=   65536000 cpu:       0.1
 (Enter /apps/gaussian/g09/l202.exe)
                          Input orientation:                          
 ---------------------------------------------------------------------
 Center     Atomic      Atomic             Coordinates (Angstroms)
 Number     Number       Type             X           Y           Z
 ---------------------------------------------------------------------
      1          7           0       -0.106935   -0.062243    0.095305
      2          7           0       -0.235791   -0.023546    1.219141
      3          7           0        0.286446   -0.013028   -1.077269
      4          1           0       -0.492877   -0.019140   -1.733144
      5          1           0        1.274852    1.392144   -1.562272
 ---------------------------------------------------------------------
                    Distance matrix (angstroms):
                    1          2          3          4          5
     1  N    0.000000
     2  N    1.131861   0.000000
     3  N    1.237780   2.355067   0.000000
     4  H    1.869234   2.963461   1.018604   0.000000
     5  H    2.602333   3.467345   1.785128   2.268432   0.000000
 Stoichiometry    H2N3(2)
 Framework group  C1[X(H2N3)]
 Deg. of freedom     9
 Full point group                 C1      NOp   1
 Largest Abelian subgroup         C1      NOp   1
 Largest concise Abelian subgroup C1      NOp   1
                         Standard orientation:                         
 ---------------------------------------------------------------------
 Center     Atomic      Atomic             Coordinates (Angstroms)
 Number     Number       Type             X           Y           Z
 ---------------------------------------------------------------------
      1          7           0        0.200137   -0.106470    0.008059
      2          7           0        1.311082    0.109821    0.019415
      3          7           0       -1.030401   -0.097185   -0.125323
      4          1           0       -1.477477   -0.777681    0.486725
      5          1           0       -1.888245    1.434516    0.198214
 ---------------------------------------------------------------------
 Rotational constants (GHZ):    142.8531689     11.0846388     10.4846195
 Leave Link  202 at Tue Apr 29 14:50:48 2014, MaxMem=   65536000 cpu:       0.0
 (Enter /apps/gaussian/g09/l301.exe)
 Standard basis: 6-311G(d,p) (5D, 7F)
 Ernie: Thresh=  0.10000D-02 Tol=  0.10000D-05 Strict=F.
 AO basis set in the form of general basis input (Overlap normalization):
      1 0
 S   6 1.00       0.000000000000
      0.6293480000D+04  0.1969788147D-02
      0.9490440000D+03  0.1496128592D-01
      0.2187760000D+03  0.7350053084D-01
      0.6369160000D+02  0.2489367658D+00
      0.1882820000D+02  0.6024594331D+00
      0.2720230000D+01  0.2562017589D+00
 SP   3 1.00       0.000000000000
      0.3063310000D+02  0.1119060795D+00  0.3831191864D-01
      0.7026140000D+01  0.9216666549D+00  0.2374031155D+00
      0.2112050000D+01 -0.2569191826D-02  0.8175923978D+00
 SP   1 1.00       0.000000000000
      0.6840090000D+00  0.1000000000D+01  0.1000000000D+01
 SP   1 1.00       0.000000000000
      0.2008780000D+00  0.1000000000D+01  0.1000000000D+01
 D   1 1.00       0.000000000000
      0.9130000000D+00  0.1000000000D+01
 ****
      2 0
 S   6 1.00       0.000000000000
      0.6293480000D+04  0.1969788147D-02
      0.9490440000D+03  0.1496128592D-01
      0.2187760000D+03  0.7350053084D-01
      0.6369160000D+02  0.2489367658D+00
      0.1882820000D+02  0.6024594331D+00
      0.2720230000D+01  0.2562017589D+00
 SP   3 1.00       0.000000000000
      0.3063310000D+02  0.1119060795D+00  0.3831191864D-01
      0.7026140000D+01  0.9216666549D+00  0.2374031155D+00
      0.2112050000D+01 -0.2569191826D-02  0.8175923978D+00
 SP   1 1.00       0.000000000000
      0.6840090000D+00  0.1000000000D+01  0.1000000000D+01
 SP   1 1.00       0.000000000000
      0.2008780000D+00  0.1000000000D+01  0.1000000000D+01
 D   1 1.00       0.000000000000
      0.9130000000D+00  0.1000000000D+01
 ****
      3 0
 S   6 1.00       0.000000000000
      0.6293480000D+04  0.1969788147D-02
      0.9490440000D+03  0.1496128592D-01
      0.2187760000D+03  0.7350053084D-01
      0.6369160000D+02  0.2489367658D+00
      0.1882820000D+02  0.6024594331D+00
      0.2720230000D+01  0.2562017589D+00
 SP   3 1.00       0.000000000000
      0.3063310000D+02  0.1119060795D+00  0.3831191864D-01
      0.7026140000D+01  0.9216666549D+00  0.2374031155D+00
      0.2112050000D+01 -0.2569191826D-02  0.8175923978D+00
 SP   1 1.00       0.000000000000
      0.6840090000D+00  0.1000000000D+01  0.1000000000D+01
 SP   1 1.00       0.000000000000
      0.2008780000D+00  0.1000000000D+01  0.1000000000D+01
 D   1 1.00       0.000000000000
      0.9130000000D+00  0.1000000000D+01
 ****
      4 0
 S   3 1.00       0.000000000000
      0.3386500000D+02  0.2549381454D-01
      0.5094790000D+01  0.1903731086D+00
      0.1158790000D+01  0.8521614860D+00
 S   1 1.00       0.000000000000
      0.3258400000D+00  0.1000000000D+01
 S   1 1.00       0.000000000000
      0.1027410000D+00  0.1000000000D+01
 P   1 1.00       0.000000000000
      0.7500000000D+00  0.1000000000D+01
 ****
      5 0
 S   3 1.00       0.000000000000
      0.3386500000D+02  0.2549381454D-01
      0.5094790000D+01  0.1903731086D+00
      0.1158790000D+01  0.8521614860D+00
 S   1 1.00       0.000000000000
      0.3258400000D+00  0.1000000000D+01
 S   1 1.00       0.000000000000
      0.1027410000D+00  0.1000000000D+01
 P   1 1.00       0.000000000000
      0.7500000000D+00  0.1000000000D+01
 ****

 There are    66 symmetry adapted basis functions of A   symmetry.
 Integral buffers will be    131072 words long.
 Raffenetti 2 integral format.
 Two-electron integral symmetry is turned on.
    66 basis functions,   112 primitive gaussians,    69 cartesian basis functions
    12 alpha electrons       11 beta electrons
       nuclear repulsion energy        66.5359318040 Hartrees.
 IExCor= 4235 DFT=T Ex+Corr=M06 ExCW=0 ScaHFX=  0.270000
 ScaDFX=  1.000000  1.000000  1.000000  1.000000 ScalE2=  1.000000  1.000000
 IRadAn=      0 IRanWt=     -1 IRanGd=            0 ICorTp=0
 NAtoms=    5 NActive=    5 NUniq=    5 SFac= 7.50D-01 NAtFMM=   80 NAOKFM=F Big=F
 Leave Link  301 at Tue Apr 29 14:50:48 2014, MaxMem=   65536000 cpu:       0.3
 (Enter /apps/gaussian/g09/l302.exe)
 NPDir=0 NMtPBC=     1 NCelOv=     1 NCel=       1 NClECP=     1 NCelD=      1
         NCelK=      1 NCelE2=     1 NClLst=     1 CellRange=     0.0.
 One-electron integrals computed using PRISM.
 NBasis=    66 RedAO= T  NBF=    66
 NBsUse=    66 1.00D-06 NBFU=    66
 Precomputing XC quadrature grid using
 IXCGrd= 2 IRadAn=           0 IRanWt=          -1 IRanGd=           0 AccXCQ= 1.00D-10.
 NRdTot=     311 NPtTot=       39452 NUsed=       41707 NTot=       41739
 NSgBfM=    69    69    69    69    69 NAtAll=     5     5.
 Leave Link  302 at Tue Apr 29 14:50:48 2014, MaxMem=   65536000 cpu:       1.5
 (Enter /apps/gaussian/g09/l303.exe)
 DipDrv:  MaxL=1.
 Leave Link  303 at Tue Apr 29 14:50:48 2014, MaxMem=   65536000 cpu:       0.1
 (Enter /apps/gaussian/g09/l401.exe)
 Harris functional with IExCor= 1009 diagonalized for initial guess.
 ExpMin= 1.03D-01 ExpMax= 6.29D+03 ExpMxC= 9.49D+02 IAcc=1 IRadAn=         1 AccDes= 0.00D+00
 HarFok:  IExCor= 1009 AccDes= 0.00D+00 IRadAn=         1 IDoV= 1
 ScaDFX=  1.000000  1.000000  1.000000  1.000000
 FoFCou: FMM=F IPFlag=           0 FMFlag=      100000 FMFlg1=           0
         NFxFlg=           0 DoJE=T BraDBF=F KetDBF=T FulRan=T
         Omega=  0.000000  0.000000  1.000000  0.000000  0.000000 ICntrl=     500 IOpCl=  0
         NMat0=    1 NMatS0=    1 NMatT0=    0 NMatD0=    1 NMtDS0=    0 NMtDT0=    0
         I1Cent=           4 NGrid=           0.
 Petite list used in FoFCou.
 Harris En= -165.166070420745    
 Initial guess orbital symmetries:
 Alpha Orbitals:
       Occupied  (A) (A) (A) (A) (A) (A) (A) (A) (A) (A) (A) (A)
       Virtual   (A) (A) (A) (A) (A) (A) (A) (A) (A) (A) (A) (A)
                 (A) (A) (A) (A) (A) (A) (A) (A) (A) (A) (A) (A)
                 (A) (A) (A) (A) (A) (A) (A) (A) (A) (A) (A) (A)
                 (A) (A) (A) (A) (A) (A) (A) (A) (A) (A) (A) (A)
                 (A) (A) (A) (A) (A) (A)
 Beta  Orbitals:
       Occupied  (A) (A) (A) (A) (A) (A) (A) (A) (A) (A) (A)
       Virtual   (A) (A) (A) (A) (A) (A) (A) (A) (A) (A) (A) (A)
                 (A) (A) (A) (A) (A) (A) (A) (A) (A) (A) (A) (A)
                 (A) (A) (A) (A) (A) (A) (A) (A) (A) (A) (A) (A)
                 (A) (A) (A) (A) (A) (A) (A) (A) (A) (A) (A) (A)
                 (A) (A) (A) (A) (A) (A) (A)
 The electronic state of the initial guess is 2-A.
 Initial guess <Sx>= 0.0000 <Sy>= 0.0000 <Sz>= 0.5000 <S**2>= 0.7500 S= 0.5000
 Leave Link  401 at Tue Apr 29 14:50:48 2014, MaxMem=   65536000 cpu:       2.1
 (Enter /apps/gaussian/g09/l502.exe)
 UHF open shell SCF:
 Requested convergence on RMS density matrix=1.00D-08 within 128 cycles.
 Requested convergence on MAX density matrix=1.00D-06.
 Requested convergence on             energy=1.00D-06.
 No special actions if energy rises.
 Using DIIS extrapolation, IDIIS=  1040.
 Integral symmetry usage will be decided dynamically.
        41649 words used for storage of precomputed grid.
 Keep R1 and R2 ints in memory in canonical form, NReq=6799222.
 IEnd=       75419 IEndB=       75419 NGot=    65536000 MDV=    59647384
 LenX=    59647384 LenY=    59642182
 Symmetry not used in FoFDir.
 MinBra= 0 MaxBra= 2 Meth= 1.
 IRaf=       0 NMat=   1 IRICut=       1 DoRegI=T DoRafI=F ISym2E= 0 JSym2E=0.
 Integral accuracy reduced to 1.0D-05 until final iterations.

 Cycle   1  Pass 0  IDiag  1:
 E= -165.180382823364    
 DIIS: error= 2.60D-02 at cycle   1 NSaved=   1.
 NSaved= 1 IEnMin= 1 EnMin= -165.180382823364     IErMin= 1 ErrMin= 2.60D-02
 ErrMax= 2.60D-02 EMaxC= 1.00D-01 BMatC= 2.06D-01 BMatP= 2.06D-01
 IDIUse=3 WtCom= 7.40D-01 WtEn= 2.60D-01
 Coeff-Com:  0.100D+01
 Coeff-En:   0.100D+01
 Coeff:      0.100D+01
 Gap=     0.178 Goal=   None    Shift=    0.000
 Gap=     0.203 Goal=   None    Shift=    0.000
 GapD=    0.178 DampG=1.000 DampE=0.500 DampFc=0.5000 IDamp=-1.
 Damping current iteration by 5.00D-01
 RMSDP=5.85D-03 MaxDP=1.33D-01              OVMax= 1.36D-01

 Cycle   2  Pass 0  IDiag  1:
 E= -165.192853295449     Delta-E=       -0.012470472085 Rises=F Damp=T
 DIIS: error= 8.94D-03 at cycle   2 NSaved=   2.
 NSaved= 2 IEnMin= 2 EnMin= -165.192853295449     IErMin= 2 ErrMin= 8.94D-03
 ErrMax= 8.94D-03 EMaxC= 1.00D-01 BMatC= 3.39D-02 BMatP= 2.06D-01
 IDIUse=3 WtCom= 9.11D-01 WtEn= 8.94D-02
 Coeff-Com:  0.221D+00 0.779D+00
 Coeff-En:   0.315D+00 0.685D+00
 Coeff:      0.229D+00 0.771D+00
 Gap=     0.179 Goal=   None    Shift=    0.000
 Gap=     0.227 Goal=   None    Shift=    0.000
 RMSDP=1.33D-03 MaxDP=2.09D-02 DE=-1.25D-02 OVMax= 8.90D-02

 Cycle   3  Pass 0  IDiag  1:
 E= -165.219923214462     Delta-E=       -0.027069919013 Rises=F Damp=F
 DIIS: error= 8.81D-03 at cycle   3 NSaved=   3.
 NSaved= 3 IEnMin= 3 EnMin= -165.219923214462     IErMin= 3 ErrMin= 8.81D-03
 ErrMax= 8.81D-03 EMaxC= 1.00D-01 BMatC= 1.39D-02 BMatP= 3.39D-02
 IDIUse=3 WtCom= 9.12D-01 WtEn= 8.81D-02
 Coeff-Com:  0.548D-01 0.376D+00 0.569D+00
 Coeff-En:   0.000D+00 0.000D+00 0.100D+01
 Coeff:      0.500D-01 0.343D+00 0.607D+00
 Gap=     0.180 Goal=   None    Shift=    0.000
 Gap=     0.243 Goal=   None    Shift=    0.000
 RMSDP=9.84D-04 MaxDP=1.25D-02 DE=-2.71D-02 OVMax= 3.71D-02

 Cycle   4  Pass 0  IDiag  1:
 E= -165.219985043465     Delta-E=       -0.000061829002 Rises=F Damp=F
 DIIS: error= 1.12D-02 at cycle   4 NSaved=   4.
 NSaved= 4 IEnMin= 4 EnMin= -165.219985043465     IErMin= 3 ErrMin= 8.81D-03
 ErrMax= 1.12D-02 EMaxC= 1.00D-01 BMatC= 1.44D-02 BMatP= 1.39D-02
 IDIUse=3 WtCom= 8.88D-01 WtEn= 1.12D-01
 Coeff-Com:  0.308D-02 0.127D+00 0.489D+00 0.381D+00
 Coeff-En:   0.000D+00 0.000D+00 0.496D+00 0.504D+00
 Coeff:      0.274D-02 0.113D+00 0.490D+00 0.395D+00
 Gap=     0.178 Goal=   None    Shift=    0.000
 Gap=     0.242 Goal=   None    Shift=    0.000
 RMSDP=6.19D-04 MaxDP=6.38D-03 DE=-6.18D-05 OVMax= 2.62D-02

 Cycle   5  Pass 0  IDiag  1:
 E= -165.222947796521     Delta-E=       -0.002962753057 Rises=F Damp=F
 DIIS: error= 2.20D-03 at cycle   5 NSaved=   5.
 NSaved= 5 IEnMin= 5 EnMin= -165.222947796521     IErMin= 5 ErrMin= 2.20D-03
 ErrMax= 2.20D-03 EMaxC= 1.00D-01 BMatC= 7.54D-04 BMatP= 1.39D-02
 IDIUse=3 WtCom= 9.78D-01 WtEn= 2.20D-02
 Coeff-Com: -0.102D-01-0.326D-02 0.166D+00 0.226D+00 0.622D+00
 Coeff-En:   0.000D+00 0.000D+00 0.000D+00 0.112D-01 0.989D+00
 Coeff:     -0.999D-02-0.319D-02 0.162D+00 0.221D+00 0.630D+00
 Gap=     0.184 Goal=   None    Shift=    0.000
 Gap=     0.243 Goal=   None    Shift=    0.000
 RMSDP=2.83D-04 MaxDP=4.75D-03 DE=-2.96D-03 OVMax= 1.58D-02

 Cycle   6  Pass 0  IDiag  1:
 E= -165.223186734279     Delta-E=       -0.000238937758 Rises=F Damp=F
 DIIS: error= 8.28D-04 at cycle   6 NSaved=   6.
 NSaved= 6 IEnMin= 6 EnMin= -165.223186734279     IErMin= 6 ErrMin= 8.28D-04
 ErrMax= 8.28D-04 EMaxC= 1.00D-01 BMatC= 9.37D-05 BMatP= 7.54D-04
 IDIUse=3 WtCom= 9.92D-01 WtEn= 8.28D-03
 Coeff-Com: -0.767D-02-0.111D-01-0.763D-01-0.825D-01 0.133D+00 0.104D+01
 Coeff-En:   0.000D+00 0.000D+00 0.000D+00 0.000D+00 0.000D+00 0.100D+01
 Coeff:     -0.761D-02-0.110D-01-0.756D-01-0.818D-01 0.132D+00 0.104D+01
 Gap=     0.184 Goal=   None    Shift=    0.000
 Gap=     0.246 Goal=   None    Shift=    0.000
 RMSDP=1.25D-04 MaxDP=1.75D-03 DE=-2.39D-04 OVMax= 7.36D-03

 Cycle   7  Pass 0  IDiag  1:
 E= -165.223239734424     Delta-E=       -0.000053000145 Rises=F Damp=F
 DIIS: error= 1.67D-04 at cycle   7 NSaved=   7.
 NSaved= 7 IEnMin= 7 EnMin= -165.223239734424     IErMin= 7 ErrMin= 1.67D-04
 ErrMax= 1.67D-04 EMaxC= 1.00D-01 BMatC= 4.81D-06 BMatP= 9.37D-05
 IDIUse=3 WtCom= 9.98D-01 WtEn= 1.67D-03
 Coeff-Com: -0.510D-03 0.108D-02-0.254D-01-0.332D-01-0.772D-01 0.152D+00
 Coeff-Com:  0.983D+00
 Coeff-En:   0.000D+00 0.000D+00 0.000D+00 0.000D+00 0.000D+00 0.000D+00
 Coeff-En:   0.100D+01
 Coeff:     -0.510D-03 0.108D-02-0.254D-01-0.332D-01-0.771D-01 0.152D+00
 Coeff:      0.983D+00
 Gap=     0.185 Goal=   None    Shift=    0.000
 Gap=     0.247 Goal=   None    Shift=    0.000
 RMSDP=5.11D-05 MaxDP=8.96D-04 DE=-5.30D-05 OVMax= 2.44D-03

 Cycle   8  Pass 0  IDiag  1:
 E= -165.223243707141     Delta-E=       -0.000003972717 Rises=F Damp=F
 DIIS: error= 5.24D-05 at cycle   8 NSaved=   8.
 NSaved= 8 IEnMin= 8 EnMin= -165.223243707141     IErMin= 8 ErrMin= 5.24D-05
 ErrMax= 5.24D-05 EMaxC= 1.00D-01 BMatC= 2.40D-07 BMatP= 4.81D-06
 IDIUse=1 WtCom= 1.00D+00 WtEn= 0.00D+00
 Coeff-Com:  0.394D-03 0.703D-03 0.479D-02 0.244D-02-0.666D-02-0.541D-01
 Coeff-Com: -0.256D-01 0.108D+01
 Coeff:      0.394D-03 0.703D-03 0.479D-02 0.244D-02-0.666D-02-0.541D-01
 Coeff:     -0.256D-01 0.108D+01
 Gap=     0.185 Goal=   None    Shift=    0.000
 Gap=     0.247 Goal=   None    Shift=    0.000
 RMSDP=1.11D-05 MaxDP=1.52D-04 DE=-3.97D-06 OVMax= 5.22D-04

 Cycle   9  Pass 0  IDiag  1:
 E= -165.223243956095     Delta-E=       -0.000000248954 Rises=F Damp=F
 DIIS: error= 1.29D-05 at cycle   9 NSaved=   9.
 NSaved= 9 IEnMin= 9 EnMin= -165.223243956095     IErMin= 9 ErrMin= 1.29D-05
 ErrMax= 1.29D-05 EMaxC= 1.00D-01 BMatC= 2.36D-08 BMatP= 2.40D-07
 IDIUse=1 WtCom= 1.00D+00 WtEn= 0.00D+00
 Coeff-Com: -0.176D-04 0.120D-03 0.222D-02 0.279D-02 0.692D-02-0.144D-01
 Coeff-Com: -0.849D-01 0.149D-01 0.107D+01
 Coeff:     -0.176D-04 0.120D-03 0.222D-02 0.279D-02 0.692D-02-0.144D-01
 Coeff:     -0.849D-01 0.149D-01 0.107D+01
 Gap=     0.185 Goal=   None    Shift=    0.000
 Gap=     0.247 Goal=   None    Shift=    0.000
 RMSDP=3.75D-06 MaxDP=3.84D-05 DE=-2.49D-07 OVMax= 1.77D-04

 Initial convergence to 1.0D-05 achieved.  Increase integral accuracy.
 Cycle  10  Pass 1  IDiag  1:
 E= -165.223243674906     Delta-E=        0.000000281189 Rises=F Damp=F
 DIIS: error= 2.46D-04 at cycle   1 NSaved=   1.
 NSaved= 1 IEnMin= 1 EnMin= -165.223243674906     IErMin= 1 ErrMin= 2.46D-04
 ErrMax= 2.46D-04 EMaxC= 1.00D-01 BMatC= 2.19D-05 BMatP= 2.19D-05
 IDIUse=3 WtCom= 9.98D-01 WtEn= 2.46D-03
 Coeff-Com:  0.100D+01
 Coeff-En:   0.100D+01
 Coeff:      0.100D+01
 Gap=     0.185 Goal=   None    Shift=    0.000
 Gap=     0.247 Goal=   None    Shift=    0.000
 RMSDP=3.75D-06 MaxDP=3.84D-05 DE= 2.81D-07 OVMax= 6.70D-04

 Cycle  11  Pass 1  IDiag  1:
 E= -165.223247891117     Delta-E=       -0.000004216211 Rises=F Damp=F
 DIIS: error= 2.24D-05 at cycle   2 NSaved=   2.
 NSaved= 2 IEnMin= 2 EnMin= -165.223247891117     IErMin= 2 ErrMin= 2.24D-05
 ErrMax= 2.24D-05 EMaxC= 1.00D-01 BMatC= 1.42D-07 BMatP= 2.19D-05
 IDIUse=1 WtCom= 1.00D+00 WtEn= 0.00D+00
 Coeff-Com:  0.120D-01 0.988D+00
 Coeff:      0.120D-01 0.988D+00
 Gap=     0.185 Goal=   None    Shift=    0.000
 Gap=     0.247 Goal=   None    Shift=    0.000
 RMSDP=6.20D-06 MaxDP=9.91D-05 DE=-4.22D-06 OVMax= 1.00D-04

 Cycle  12  Pass 1  IDiag  1:
 E= -165.223247869243     Delta-E=        0.000000021874 Rises=F Damp=F
 DIIS: error= 3.52D-05 at cycle   3 NSaved=   3.
 NSaved= 3 IEnMin= 2 EnMin= -165.223247891117     IErMin= 2 ErrMin= 2.24D-05
 ErrMax= 3.52D-05 EMaxC= 1.00D-01 BMatC= 3.23D-07 BMatP= 1.42D-07
 IDIUse=1 WtCom= 1.00D+00 WtEn= 0.00D+00
 Coeff-Com:  0.133D-02 0.622D+00 0.377D+00
 Coeff:      0.133D-02 0.622D+00 0.377D+00
 Gap=     0.185 Goal=   None    Shift=    0.000
 Gap=     0.247 Goal=   None    Shift=    0.000
 RMSDP=2.91D-06 MaxDP=3.94D-05 DE= 2.19D-08 OVMax= 9.54D-05

 Cycle  13  Pass 1  IDiag  1:
 E= -165.223247920092     Delta-E=       -0.000000050848 Rises=F Damp=F
 DIIS: error= 2.09D-05 at cycle   4 NSaved=   4.
 NSaved= 4 IEnMin= 4 EnMin= -165.223247920092     IErMin= 4 ErrMin= 2.09D-05
 ErrMax= 2.09D-05 EMaxC= 1.00D-01 BMatC= 4.52D-08 BMatP= 1.42D-07
 IDIUse=1 WtCom= 1.00D+00 WtEn= 0.00D+00
 Coeff-Com: -0.217D-02 0.146D+00 0.263D+00 0.593D+00
 Coeff:     -0.217D-02 0.146D+00 0.263D+00 0.593D+00
 Gap=     0.185 Goal=   None    Shift=    0.000
 Gap=     0.247 Goal=   None    Shift=    0.000
 RMSDP=1.77D-06 MaxDP=1.97D-05 DE=-5.08D-08 OVMax= 8.08D-05

 Cycle  14  Pass 1  IDiag  1:
 E= -165.223247927239     Delta-E=       -0.000000007148 Rises=F Damp=F
 DIIS: error= 1.13D-05 at cycle   5 NSaved=   5.
 NSaved= 5 IEnMin= 5 EnMin= -165.223247927239     IErMin= 5 ErrMin= 1.13D-05
 ErrMax= 1.13D-05 EMaxC= 1.00D-01 BMatC= 1.55D-08 BMatP= 4.52D-08
 IDIUse=1 WtCom= 1.00D+00 WtEn= 0.00D+00
 Coeff-Com: -0.184D-02-0.581D-02 0.114D+00 0.445D+00 0.449D+00
 Coeff:     -0.184D-02-0.581D-02 0.114D+00 0.445D+00 0.449D+00
 Gap=     0.185 Goal=   None    Shift=    0.000
 Gap=     0.247 Goal=   None    Shift=    0.000
 RMSDP=6.55D-07 MaxDP=6.99D-06 DE=-7.15D-09 OVMax= 2.42D-05

 Cycle  15  Pass 1  IDiag  1:
 E= -165.223247930858     Delta-E=       -0.000000003618 Rises=F Damp=F
 DIIS: error= 1.78D-06 at cycle   6 NSaved=   6.
 NSaved= 6 IEnMin= 6 EnMin= -165.223247930858     IErMin= 6 ErrMin= 1.78D-06
 ErrMax= 1.78D-06 EMaxC= 1.00D-01 BMatC= 5.26D-10 BMatP= 1.55D-08
 IDIUse=1 WtCom= 1.00D+00 WtEn= 0.00D+00
 Coeff-Com: -0.679D-03-0.158D-01 0.262D-01 0.152D+00 0.188D+00 0.650D+00
 Coeff:     -0.679D-03-0.158D-01 0.262D-01 0.152D+00 0.188D+00 0.650D+00
 Gap=     0.185 Goal=   None    Shift=    0.000
 Gap=     0.247 Goal=   None    Shift=    0.000
 RMSDP=1.88D-07 MaxDP=2.78D-06 DE=-3.62D-09 OVMax= 9.48D-06

 Cycle  16  Pass 1  IDiag  1:
 E= -165.223247931047     Delta-E=       -0.000000000189 Rises=F Damp=F
 DIIS: error= 6.47D-07 at cycle   7 NSaved=   7.
 NSaved= 7 IEnMin= 7 EnMin= -165.223247931047     IErMin= 7 ErrMin= 6.47D-07
 ErrMax= 6.47D-07 EMaxC= 1.00D-01 BMatC= 9.99D-11 BMatP= 5.26D-10
 IDIUse=1 WtCom= 1.00D+00 WtEn= 0.00D+00
 Coeff-Com:  0.260D-03-0.595D-02-0.171D-01-0.605D-01-0.672D-01 0.180D+00
 Coeff-Com:  0.971D+00
 Coeff:      0.260D-03-0.595D-02-0.171D-01-0.605D-01-0.672D-01 0.180D+00
 Coeff:      0.971D+00
 Gap=     0.185 Goal=   None    Shift=    0.000
 Gap=     0.247 Goal=   None    Shift=    0.000
 RMSDP=1.61D-07 MaxDP=2.44D-06 DE=-1.89D-10 OVMax= 7.74D-06

 Cycle  17  Pass 1  IDiag  1:
 E= -165.223247931117     Delta-E=       -0.000000000071 Rises=F Damp=F
 DIIS: error= 2.46D-07 at cycle   8 NSaved=   8.
 NSaved= 8 IEnMin= 8 EnMin= -165.223247931117     IErMin= 8 ErrMin= 2.46D-07
 ErrMax= 2.46D-07 EMaxC= 1.00D-01 BMatC= 9.09D-12 BMatP= 9.99D-11
 IDIUse=1 WtCom= 1.00D+00 WtEn= 0.00D+00
 Coeff-Com:  0.158D-03 0.229D-02-0.441D-02-0.333D-01-0.418D-01-0.718D-01
 Coeff-Com:  0.473D-01 0.110D+01
 Coeff:      0.158D-03 0.229D-02-0.441D-02-0.333D-01-0.418D-01-0.718D-01
 Coeff:      0.473D-01 0.110D+01
 Gap=     0.185 Goal=   None    Shift=    0.000
 Gap=     0.247 Goal=   None    Shift=    0.000
 RMSDP=8.25D-08 MaxDP=1.07D-06 DE=-7.06D-11 OVMax= 3.91D-06

 Cycle  18  Pass 1  IDiag  1:
 E= -165.223247931130     Delta-E=       -0.000000000013 Rises=F Damp=F
 DIIS: error= 1.14D-07 at cycle   9 NSaved=   9.
 NSaved= 9 IEnMin= 9 EnMin= -165.223247931130     IErMin= 9 ErrMin= 1.14D-07
 ErrMax= 1.14D-07 EMaxC= 1.00D-01 BMatC= 1.34D-12 BMatP= 9.09D-12
 IDIUse=1 WtCom= 1.00D+00 WtEn= 0.00D+00
 Coeff-Com: -0.208D-04 0.436D-03 0.124D-02 0.593D-02 0.283D-02-0.122D-01
 Coeff-Com: -0.116D+00 0.278D-01 0.109D+01
 Coeff:     -0.208D-04 0.436D-03 0.124D-02 0.593D-02 0.283D-02-0.122D-01
 Coeff:     -0.116D+00 0.278D-01 0.109D+01
 Gap=     0.185 Goal=   None    Shift=    0.000
 Gap=     0.247 Goal=   None    Shift=    0.000
 RMSDP=2.93D-08 MaxDP=3.97D-07 DE=-1.29D-11 OVMax= 1.38D-06

 Cycle  19  Pass 1  IDiag  1:
 E= -165.223247931132     Delta-E=       -0.000000000001 Rises=F Damp=F
 DIIS: error= 4.73D-08 at cycle  10 NSaved=  10.
 NSaved=10 IEnMin=10 EnMin= -165.223247931132     IErMin=10 ErrMin= 4.73D-08
 ErrMax= 4.73D-08 EMaxC= 1.00D-01 BMatC= 1.97D-13 BMatP= 1.34D-12
 IDIUse=1 WtCom= 1.00D+00 WtEn= 0.00D+00
 Coeff-Com: -0.199D-04-0.352D-03 0.637D-03 0.486D-02 0.491D-02 0.111D-01
 Coeff-Com:  0.858D-02-0.169D+00-0.167D+00 0.131D+01
 Coeff:     -0.199D-04-0.352D-03 0.637D-03 0.486D-02 0.491D-02 0.111D-01
 Coeff:      0.858D-02-0.169D+00-0.167D+00 0.131D+01
 Gap=     0.185 Goal=   None    Shift=    0.000
 Gap=     0.247 Goal=   None    Shift=    0.000
 RMSDP=1.36D-08 MaxDP=1.76D-07 DE=-1.45D-12 OVMax= 5.91D-07

 Cycle  20  Pass 1  IDiag  1:
 E= -165.223247931132     Delta-E=       -0.000000000000 Rises=F Damp=F
 DIIS: error= 2.07D-08 at cycle  11 NSaved=  11.
 NSaved=11 IEnMin=11 EnMin= -165.223247931132     IErMin=11 ErrMin= 2.07D-08
 ErrMax= 2.07D-08 EMaxC= 1.00D-01 BMatC= 3.03D-14 BMatP= 1.97D-13
 IDIUse=1 WtCom= 1.00D+00 WtEn= 0.00D+00
 Coeff-Com:  0.197D-05-0.886D-04-0.130D-03-0.914D-03-0.273D-03 0.185D-02
 Coeff-Com:  0.222D-01-0.164D-01-0.172D+00 0.734D-01 0.109D+01
 Coeff:      0.197D-05-0.886D-04-0.130D-03-0.914D-03-0.273D-03 0.185D-02
 Coeff:      0.222D-01-0.164D-01-0.172D+00 0.734D-01 0.109D+01
 Gap=     0.185 Goal=   None    Shift=    0.000
 Gap=     0.247 Goal=   None    Shift=    0.000
 RMSDP=4.31D-09 MaxDP=5.13D-08 DE=-2.84D-13 OVMax= 1.66D-07

 SCF Done:  E(UM06) =  -165.223247931     A.U. after   20 cycles
             Convg  =    0.4308D-08             -V/T =  2.0020
 <Sx>= 0.0000 <Sy>= 0.0000 <Sz>= 0.5000 <S**2>= 0.7593 S= 0.5046
 <L.S>=  0.00000000000    
 KE= 1.648985921871D+02 PE=-5.194934886080D+02 EE= 1.228357166857D+02
 Annihilation of the first spin contaminant:
 S**2 before annihilation     0.7593,   after     0.7500
 Leave Link  502 at Tue Apr 29 14:50:50 2014, MaxMem=   65536000 cpu:      17.5
 (Enter /apps/gaussian/g09/l801.exe)
 Range of M.O.s used for correlation:     1    66
 NBasis=    66 NAE=    12 NBE=    11 NFC=     0 NFV=     0
 NROrb=     66 NOA=    12 NOB=    11 NVA=    54 NVB=    55

 **** Warning!!: The largest alpha MO coefficient is  0.10150812D+02


 **** Warning!!: The largest beta MO coefficient is  0.10165052D+02

 Leave Link  801 at Tue Apr 29 14:50:50 2014, MaxMem=   65536000 cpu:       0.2
 (Enter /apps/gaussian/g09/l1101.exe)
 Using compressed storage, NAtomX=     5.
 Will process   6 centers per pass.
 Leave Link 1101 at Tue Apr 29 14:50:50 2014, MaxMem=   65536000 cpu:       1.2
 (Enter /apps/gaussian/g09/l1102.exe)
 Symmetrizing basis deriv contribution to polar:
 IMax=3 JMax=2 DiffMx= 0.00D+00
 Leave Link 1102 at Tue Apr 29 14:50:50 2014, MaxMem=   65536000 cpu:       0.2
 (Enter /apps/gaussian/g09/l1110.exe)
 Forming Gx(P) for the SCF density, NAtomX=     5.
 Integral derivatives from FoFDir/FoFCou, PRISM(SPDF).
 Do as many integral derivatives as possible in FoFDir.
 G2DrvN: MDV=      65535856.
 G2DrvN: will do     6 centers at a time, making    1 passes doing MaxLOS=2.
 Calling FoFCou, ICntrl=  3107 FMM=F I1Cent=   0 AccDes= 0.00D+00.
 FoFCou: FMM=F IPFlag=           0 FMFlag=      100000 FMFlg1=           0
         NFxFlg=           0 DoJE=F BraDBF=F KetDBF=F FulRan=T
         Omega=  0.000000  0.000000  1.000000  0.000000  0.000000 ICntrl=    3107 IOpCl=  1
         NMat0=    1 NMatS0=    1 NMatT0=    0 NMatD0=    1 NMtDS0=    0 NMtDT0=    0
         I1Cent=           0 NGrid=           0.
 Symmetry not used in FoFCou.
 FoFDir/FoFCou used for L=0 through L=2.
 End of G2Drv Frequency-dependent properties file   721 does not exist.
 End of G2Drv Frequency-dependent properties file   722 does not exist.
 Leave Link 1110 at Tue Apr 29 14:50:52 2014, MaxMem=   65536000 cpu:      17.6
 (Enter /apps/gaussian/g09/l1002.exe)
 Minotr:  UHF open shell wavefunction.
          IDoAtm=11111
          Direct CPHF calculation.
          Differentiating once with respect to electric field.
                with respect to dipole field.
          Differentiating once with respect to nuclear coordinates.
          Requested convergence is 1.0D-08 RMS, and 1.0D-07 maximum.
          Secondary convergence is 1.0D-12 RMS, and 1.0D-12 maximum.
          NewPWx=T KeepS1=F KeepF1=F KeepIn=T MapXYZ=F SortEE=F KeepMc=T.
          MDV=      65535946 using IRadAn=       2.
 Generate precomputed XC quadrature information.
          Keep R1 and R2 ints in memory in canonical form, NReq=6656460.
 Symmetry not used in FoFDir.
 MinBra= 0 MaxBra= 2 Meth= 1.
 IRaf=       0 NMat=   1 IRICut=       1 DoRegI=T DoRafI=F ISym2E= 0 JSym2E=0.
          Solving linear equations simultaneously, MaxMat=       0.
          There are    18 degrees of freedom in the 1st order CPHF.  IDoFFX=5.
     15 vectors produced by pass  0 Test12= 6.96D-15 5.56D-09 XBig12= 1.71D+02 5.98D+00.
 AX will form    15 AO Fock derivatives at one time.
     15 vectors produced by pass  1 Test12= 6.96D-15 5.56D-09 XBig12= 6.76D+01 1.46D+00.
     15 vectors produced by pass  2 Test12= 6.96D-15 5.56D-09 XBig12= 1.18D+00 2.32D-01.
     15 vectors produced by pass  3 Test12= 6.96D-15 5.56D-09 XBig12= 2.38D-02 3.64D-02.
     15 vectors produced by pass  4 Test12= 6.96D-15 5.56D-09 XBig12= 3.26D-04 3.47D-03.
     15 vectors produced by pass  5 Test12= 6.96D-15 5.56D-09 XBig12= 3.71D-06 5.11D-04.
     13 vectors produced by pass  6 Test12= 6.96D-15 5.56D-09 XBig12= 2.33D-08 2.36D-05.
      6 vectors produced by pass  7 Test12= 6.96D-15 5.56D-09 XBig12= 6.47D-11 1.08D-06.
      2 vectors produced by pass  8 Test12= 6.96D-15 5.56D-09 XBig12= 1.97D-13 7.39D-08.
 Inverted reduced A of dimension   111 with in-core refinement.
 FullF1:  Do perturbations    1 to     3.
 Isotropic polarizability for W=    0.000000       27.47 Bohr**3.
 End of Minotr Frequency-dependent properties file   721 does not exist.
 End of Minotr Frequency-dependent properties file   722 does not exist.
 Leave Link 1002 at Tue Apr 29 14:50:54 2014, MaxMem=   65536000 cpu:      24.9
 (Enter /apps/gaussian/g09/l601.exe)
 Copying SCF densities to generalized density rwf, IOpCl= 1 IROHF=0.

 **********************************************************************

            Population analysis using the SCF density.

 **********************************************************************

 Orbital symmetries:
 Alpha Orbitals:
       Occupied  (A) (A) (A) (A) (A) (A) (A) (A) (A) (A) (A) (A)
       Virtual   (A) (A) (A) (A) (A) (A) (A) (A) (A) (A) (A) (A)
                 (A) (A) (A) (A) (A) (A) (A) (A) (A) (A) (A) (A)
                 (A) (A) (A) (A) (A) (A) (A) (A) (A) (A) (A) (A)
                 (A) (A) (A) (A) (A) (A) (A) (A) (A) (A) (A) (A)
                 (A) (A) (A) (A) (A) (A)
 Beta  Orbitals:
       Occupied  (A) (A) (A) (A) (A) (A) (A) (A) (A) (A) (A)
       Virtual   (A) (A) (A) (A) (A) (A) (A) (A) (A) (A) (A) (A)
                 (A) (A) (A) (A) (A) (A) (A) (A) (A) (A) (A) (A)
                 (A) (A) (A) (A) (A) (A) (A) (A) (A) (A) (A) (A)
                 (A) (A) (A) (A) (A) (A) (A) (A) (A) (A) (A) (A)
                 (A) (A) (A) (A) (A) (A) (A)
 The electronic state is 2-A.
 Alpha  occ. eigenvalues --  -14.57092 -14.47257 -14.45568  -1.17651  -1.00942
 Alpha  occ. eigenvalues --   -0.65506  -0.55867  -0.54601  -0.48153  -0.38751
 Alpha  occ. eigenvalues --   -0.32277  -0.22271
 Alpha virt. eigenvalues --   -0.03754   0.00734   0.03807   0.22388   0.25882
 Alpha virt. eigenvalues --    0.36529   0.41937   0.45500   0.50107   0.52807
 Alpha virt. eigenvalues --    0.60240   0.64562   0.67526   0.68842   0.74251
 Alpha virt. eigenvalues --    0.77417   0.91640   1.02248   1.11935   1.21966
 Alpha virt. eigenvalues --    1.35891   1.39737   1.44629   1.50053   1.64723
 Alpha virt. eigenvalues --    1.65909   1.70501   1.82902   1.85406   2.07465
 Alpha virt. eigenvalues --    2.10162   2.16987   2.23896   2.35114   2.38796
 Alpha virt. eigenvalues --    2.45926   2.47342   2.66027   2.85167   3.02496
 Alpha virt. eigenvalues --    3.17658   3.48524   3.51306   3.62979   3.87545
 Alpha virt. eigenvalues --    3.90096   3.90663   4.08147   4.27348   4.36251
 Alpha virt. eigenvalues --    5.03004  34.96345  35.46804  36.16875
  Beta  occ. eigenvalues --  -14.57072 -14.46971 -14.45423  -1.17148  -1.00438
  Beta  occ. eigenvalues --   -0.65348  -0.54774  -0.54395  -0.47300  -0.36652
  Beta  occ. eigenvalues --   -0.31251
  Beta virt. eigenvalues --   -0.06548  -0.02437   0.02125   0.05071   0.22813
  Beta virt. eigenvalues --    0.36191   0.38849   0.41829   0.45618   0.50119
  Beta virt. eigenvalues --    0.53808   0.60466   0.65091   0.67857   0.68869
  Beta virt. eigenvalues --    0.74275   0.78195   0.92085   1.02869   1.12297
  Beta virt. eigenvalues --    1.22714   1.40455   1.45562   1.45856   1.52128
  Beta virt. eigenvalues --    1.65331   1.66464   1.71075   1.84192   1.89683
  Beta virt. eigenvalues --    2.08189   2.10962   2.21019   2.24796   2.37961
  Beta virt. eigenvalues --    2.39170   2.47461   2.63213   2.66831   2.85229
  Beta virt. eigenvalues --    3.03339   3.18036   3.48368   3.51601   3.63438
  Beta virt. eigenvalues --    3.87408   3.90650   3.91451   4.08108   4.27136
  Beta virt. eigenvalues --    4.36421   5.02998  34.96627  35.47040  36.17131
     Alpha Molecular Orbital Coefficients:
                           1         2         3         4         5
                           O         O         O         O         O
     Eigenvalues --   -14.57092 -14.47257 -14.45568  -1.17651  -1.00942
   1 1   N  1S          0.55747  -0.00328  -0.00115  -0.10530  -0.00605
   2        2S          0.46462  -0.00209  -0.00069  -0.16333  -0.00993
   3        2PX        -0.00024   0.00104  -0.00077   0.03196  -0.17859
   4        2PY         0.00022   0.00017  -0.00001   0.01444  -0.01958
   5        2PZ        -0.00015   0.00002  -0.00007  -0.00310  -0.00733
   6        3S          0.01832  -0.00282  -0.00092   0.46360   0.03374
   7        3PX         0.00237  -0.00576   0.00285   0.03159  -0.23700
   8        3PY         0.00085  -0.00100   0.00003   0.01726  -0.02530
   9        3PZ        -0.00013  -0.00010   0.00025  -0.00447  -0.00980
  10        4S         -0.00349   0.00345   0.00203   0.21100   0.02642
  11        4PX         0.00054   0.00780  -0.00809  -0.00619  -0.06785
  12        4PY        -0.00019   0.00094  -0.00027   0.00345  -0.01049
  13        4PZ         0.00008   0.00035  -0.00037  -0.00127  -0.00167
  14        5D 0       -0.00236   0.00137   0.00069  -0.01214  -0.00136
  15        5D+1        0.00039  -0.00002  -0.00034   0.00187   0.00117
  16        5D-1        0.00003  -0.00001   0.00002  -0.00065  -0.00018
  17        5D+2        0.00395  -0.00218  -0.00127   0.01950   0.00279
  18        5D-2        0.00093  -0.00094   0.00009   0.00473  -0.00235
  19 2   N  1S          0.00306   0.55742   0.00061  -0.06742   0.06530
  20        2S          0.00332   0.46514   0.00053  -0.10382   0.10179
  21        2PX        -0.00079  -0.00179  -0.00008  -0.08178   0.06882
  22        2PY        -0.00018  -0.00037   0.00003  -0.01537   0.01574
  23        2PZ         0.00001  -0.00002  -0.00003  -0.00117  -0.00001
  24        3S         -0.00317   0.01694  -0.00003   0.28980  -0.28772
  25        3PX         0.00552  -0.00410   0.00011  -0.10849   0.08941
  26        3PY         0.00121  -0.00078  -0.00015  -0.01986   0.02142
  27        3PZ        -0.00001  -0.00005   0.00011  -0.00175  -0.00039
  28        4S         -0.00103  -0.01186   0.00532   0.11419  -0.13845
  29        4PX        -0.00028   0.00401  -0.00174  -0.02240   0.02484
  30        4PY         0.00004   0.00097  -0.00066  -0.00548   0.00605
  31        4PZ        -0.00003  -0.00005  -0.00002   0.00014  -0.00024
  32        5D 0        0.00157  -0.00126   0.00004  -0.00885   0.00798
  33        5D+1        0.00002   0.00006  -0.00007   0.00049   0.00021
  34        5D-1        0.00001   0.00001  -0.00002  -0.00019   0.00024
  35        5D+2       -0.00245   0.00200  -0.00015   0.01346  -0.01124
  36        5D-2       -0.00116   0.00077   0.00015   0.00522  -0.00626
  37 3   N  1S          0.00107  -0.00061   0.55760  -0.04644  -0.08519
  38        2S          0.00125  -0.00049   0.46504  -0.07153  -0.13252
  39        2PX         0.00089   0.00013   0.00133   0.04736   0.05911
  40        2PY         0.00006   0.00006  -0.00068  -0.00431  -0.01602
  41        2PZ         0.00001  -0.00002   0.00093   0.01061   0.02374
  42        3S         -0.00101  -0.00004   0.01676   0.19887   0.37204
  43        3PX        -0.00375  -0.00029   0.00060   0.06937   0.09298
  44        3PY        -0.00034  -0.00020  -0.00075  -0.00484  -0.02314
  45        3PZ         0.00002   0.00009   0.00104   0.01454   0.03464
  46        4S          0.00051   0.00393  -0.01259   0.07607   0.20943
  47        4PX         0.00099   0.00180  -0.00335   0.00179   0.02223
  48        4PY         0.00009  -0.00003  -0.00010  -0.00541  -0.00675
  49        4PZ         0.00005   0.00012  -0.00105   0.00708   0.01475
  50        5D 0        0.00102   0.00006  -0.00051  -0.00485  -0.00775
  51        5D+1       -0.00066   0.00005  -0.00022   0.00234   0.00449
  52        5D-1       -0.00021  -0.00000  -0.00053  -0.00156  -0.00378
  53        5D+2       -0.00188  -0.00012   0.00079   0.00838   0.01342
  54        5D-2        0.00040  -0.00017   0.00049  -0.00012  -0.00203
  55 4   H  1S         -0.00031  -0.00002  -0.00007   0.02128   0.05608
  56        2S         -0.00077   0.00002  -0.00137   0.01889   0.05307
  57        3S          0.00071   0.00044   0.00137  -0.01167  -0.00931
  58        4PX        -0.00019   0.00011  -0.00077   0.00460   0.00919
  59        4PY        -0.00052   0.00001  -0.00129   0.00344   0.00899
  60        4PZ         0.00046   0.00000   0.00131  -0.00288  -0.00814
  61 5   H  1S          0.00009   0.00003  -0.00009   0.00170   0.00564
  62        2S         -0.00024  -0.00012   0.00050   0.00402   0.00521
  63        3S          0.00026   0.00016   0.00023  -0.00302  -0.00041
  64        4PX        -0.00002  -0.00001   0.00032   0.00024  -0.00017
  65        4PY         0.00001  -0.00001  -0.00032  -0.00021  -0.00060
  66        4PZ        -0.00001  -0.00000  -0.00004  -0.00008  -0.00008
                           6         7         8         9        10
                           O         O         O         O         O
     Eigenvalues --    -0.65506  -0.55867  -0.54601  -0.48153  -0.38751
   1 1   N  1S          0.04211   0.02538  -0.01794   0.02769   0.00611
   2        2S          0.06715   0.04100  -0.02888   0.04470   0.01000
   3        2PX         0.09553  -0.00755  -0.02649  -0.12023   0.02575
   4        2PY        -0.03256   0.20926   0.03225  -0.04339  -0.06752
   5        2PZ         0.05224  -0.01123   0.21556   0.02499   0.03582
   6        3S         -0.20861  -0.12610   0.08925  -0.14223  -0.03475
   7        3PX         0.13272  -0.01408  -0.03936  -0.16297   0.03286
   8        3PY        -0.05153   0.32288   0.05042  -0.06313  -0.10262
   9        3PZ         0.08054  -0.01647   0.33177   0.03839   0.05514
  10        4S         -0.21287  -0.13712   0.09515  -0.16800  -0.01505
  11        4PX         0.07392   0.01728  -0.02928  -0.12987   0.12353
  12        4PY        -0.03352   0.22394   0.02883  -0.05372  -0.07417
  13        4PZ         0.04577  -0.01848   0.23318   0.03334   0.04335
  14        5D 0       -0.00131  -0.00018  -0.00236  -0.00029   0.00166
  15        5D+1       -0.00576  -0.00100   0.00518   0.00371   0.01637
  16        5D-1        0.00124  -0.00151   0.00412   0.00108   0.00139
  17        5D+2        0.00220  -0.00785  -0.00014   0.00231   0.00663
  18        5D-2        0.00610   0.00138  -0.00026  -0.00207  -0.03597
  19 2   N  1S         -0.03152  -0.02143   0.01711  -0.07527   0.00017
  20        2S         -0.04991  -0.03434   0.02734  -0.11989   0.00005
  21        2PX         0.00553  -0.00238  -0.02600   0.20888   0.02752
  22        2PY        -0.01908   0.12628   0.01900   0.02201  -0.13723
  23        2PZ         0.02004  -0.00625   0.13257   0.02549   0.05958
  24        3S          0.14521   0.10213  -0.08062   0.34088   0.00073
  25        3PX         0.00982  -0.00887  -0.03578   0.28214   0.04190
  26        3PY        -0.03026   0.19468   0.03041   0.02684  -0.20672
  27        3PZ         0.03214  -0.00979   0.20535   0.03840   0.08945
  28        4S          0.13385   0.08791  -0.08999   0.58379  -0.08140
  29        4PX        -0.00111   0.00506  -0.02033   0.14317   0.06530
  30        4PY        -0.01065   0.10255   0.01680   0.00990  -0.16233
  31        4PZ         0.01176  -0.00300   0.10840   0.02415   0.07558
  32        5D 0       -0.00029   0.00077  -0.00158   0.01275  -0.00086
  33        5D+1       -0.00670   0.00161  -0.03370  -0.00518  -0.00977
  34        5D-1       -0.00140  -0.00013  -0.00653  -0.00179  -0.00182
  35        5D+2       -0.00263   0.01055   0.00458  -0.02327  -0.00731
  36        5D-2        0.00592  -0.03065  -0.00475  -0.00504   0.02054
  37 3   N  1S         -0.04633  -0.02828   0.02406   0.00265  -0.02682
  38        2S         -0.07295  -0.04518   0.03836   0.00417  -0.04281
  39        2PX        -0.15661  -0.04042   0.03058   0.06833  -0.03952
  40        2PY        -0.07560   0.10190   0.02254  -0.00604   0.15340
  41        2PZ         0.06569  -0.00336   0.09824   0.00462  -0.07314
  42        3S          0.20173   0.13181  -0.11248  -0.00760   0.11949
  43        3PX        -0.22606  -0.05363   0.04043   0.10121  -0.05548
  44        3PY        -0.11252   0.15805   0.03558  -0.01108   0.22398
  45        3PZ         0.09957  -0.00265   0.15284   0.00780  -0.10291
  46        4S          0.25965   0.17665  -0.13146  -0.05597   0.29590
  47        4PX        -0.07934  -0.03257   0.02814   0.05767  -0.02528
  48        4PY        -0.05311   0.09010   0.02619  -0.00218   0.20112
  49        4PZ         0.05385   0.00810   0.08779  -0.00140  -0.07503
  50        5D 0        0.01113   0.00210   0.00890  -0.00276  -0.00079
  51        5D+1       -0.00501  -0.00393   0.02677   0.00794  -0.00421
  52        5D-1       -0.01242   0.00636  -0.00130   0.00059   0.01226
  53        5D+2       -0.02009   0.00119   0.00119   0.00666   0.00053
  54        5D-2        0.00244   0.02564   0.00223  -0.00708   0.00307
  55 4   H  1S          0.15939  -0.00470  -0.00712  -0.02843  -0.08832
  56        2S          0.19362  -0.01713  -0.00485  -0.03708  -0.15280
  57        3S          0.03577  -0.00125  -0.00381  -0.01446  -0.04986
  58        4PX         0.00514  -0.00698   0.00395   0.00353  -0.01551
  59        4PY         0.01486   0.00517   0.00251  -0.00216   0.00027
  60        4PZ        -0.01343   0.00195   0.00774   0.00165   0.00532
  61 5   H  1S          0.01567   0.03463  -0.00334  -0.01418   0.11311
  62        2S          0.02106   0.04808  -0.00675  -0.02499   0.17998
  63        3S          0.01096   0.02619  -0.00376  -0.01171   0.15032
  64        4PX        -0.00038   0.00199   0.00017  -0.00057   0.00109
  65        4PY        -0.00298  -0.00175   0.00106   0.00140  -0.00249
  66        4PZ         0.00029  -0.00020   0.00153   0.00019  -0.00083
                          11        12        13        14        15
                           O         O         V         V         V
     Eigenvalues --    -0.32277  -0.22271  -0.03754   0.00734   0.03807
   1 1   N  1S         -0.00594  -0.00907   0.00490   0.00237  -0.00908
   2        2S         -0.00976  -0.01481   0.00742   0.00385  -0.01467
   3        2PX        -0.01883  -0.01531  -0.01383  -0.02694  -0.01019
   4        2PY        -0.00652  -0.06318   0.14883   0.15136  -0.03468
   5        2PZ        -0.02635  -0.01259  -0.15169   0.17366   0.02029
   6        3S          0.03314   0.04280  -0.00338  -0.00995   0.02657
   7        3PX        -0.02766  -0.01908  -0.03730  -0.04435  -0.04530
   8        3PY        -0.00774  -0.09707   0.22853   0.23455  -0.05245
   9        3PZ        -0.03889  -0.01990  -0.23498   0.26872   0.03028
  10        4S          0.01742   0.07513  -0.20771  -0.05764   0.15082
  11        4PX         0.00227  -0.03995   0.13867  -0.05758   0.30818
  12        4PY        -0.01089  -0.12061   0.34040   0.36430  -0.08290
  13        4PZ        -0.03015  -0.02396  -0.32706   0.42032   0.08032
  14        5D 0       -0.00368   0.00221  -0.00107   0.00041   0.01336
  15        5D+1       -0.04810   0.00648   0.02122  -0.00753   0.00182
  16        5D-1       -0.00607   0.00286   0.00208  -0.00218  -0.00526
  17        5D+2        0.00449  -0.01242   0.00811   0.00505  -0.02188
  18        5D-2       -0.01713   0.03300  -0.01455  -0.00259  -0.01204
  19 2   N  1S          0.00019   0.00258  -0.00236  -0.00096   0.01305
  20        2S          0.00034   0.00449  -0.00423  -0.00159   0.02173
  21        2PX         0.02503  -0.00939   0.01195   0.01966   0.03808
  22        2PY        -0.05751   0.13219  -0.14463  -0.12347   0.04068
  23        2PZ        -0.16158   0.02162   0.15319  -0.14706  -0.02370
  24        3S         -0.00257  -0.01999   0.01947   0.00616  -0.09227
  25        3PX         0.03580  -0.01387   0.01390   0.02733   0.05588
  26        3PY        -0.08591   0.19445  -0.20847  -0.17556   0.06170
  27        3PZ        -0.24096   0.03107   0.21898  -0.20808  -0.03617
  28        4S          0.00098   0.03186  -0.10003   0.00413  -0.28252
  29        4PX         0.03290  -0.04131   0.07950   0.05580   0.13939
  30        4PY        -0.08099   0.23268  -0.32664  -0.32142   0.12227
  31        4PZ        -0.23110   0.04053   0.36218  -0.38512  -0.06126
  32        5D 0        0.00075   0.00096  -0.00105   0.00014  -0.00116
  33        5D+1        0.01917  -0.00088   0.00547  -0.00965  -0.00038
  34        5D-1        0.00398  -0.00011   0.00110  -0.00217  -0.00105
  35        5D+2       -0.00373   0.00087   0.00415   0.00388   0.00195
  36        5D-2        0.00545  -0.00742  -0.00504  -0.00851   0.00160
  37 3   N  1S          0.02499   0.03192   0.02214   0.00579   0.03481
  38        2S          0.04014   0.05139   0.03514   0.00922   0.05497
  39        2PX         0.02329   0.03048   0.07802   0.03037  -0.00526
  40        2PY         0.07216  -0.10864  -0.05628  -0.11949   0.11877
  41        2PZ         0.20414  -0.02769   0.03953  -0.11851  -0.07651
  42        3S         -0.12160  -0.15901  -0.08801  -0.02347  -0.14891
  43        3PX         0.03086   0.03398   0.11194   0.04157  -0.05218
  44        3PY         0.10737  -0.15801  -0.07838  -0.16826   0.15129
  45        3PZ         0.29916  -0.04620   0.04699  -0.16427  -0.09667
  46        4S         -0.15871  -0.28356  -0.25122  -0.10518  -0.56226
  47        4PX         0.03927   0.05777   0.24599   0.08225   0.26200
  48        4PY         0.12591  -0.19516  -0.10569  -0.30988   0.38611
  49        4PZ         0.32903  -0.04198   0.09157  -0.32456  -0.24687
  50        5D 0        0.01255  -0.00963  -0.00364  -0.00686  -0.00013
  51        5D+1        0.01466  -0.00200  -0.01691   0.01669  -0.00533
  52        5D-1       -0.00414  -0.00275  -0.00626   0.00079   0.00128
  53        5D+2        0.00367  -0.00377   0.00075  -0.00624   0.00426
  54        5D-2        0.00352  -0.02353   0.01536   0.00945   0.00972
  55 4   H  1S          0.03034   0.00284   0.08827  -0.00111   0.04431
  56        2S          0.04186  -0.00408   0.19197  -0.00793  -0.04908
  57        3S          0.01825   0.02733   0.33368   0.09174   1.55765
  58        4PX         0.00577   0.00408  -0.00179   0.00336  -0.01907
  59        4PY         0.01074  -0.00875  -0.00456  -0.01721  -0.01605
  60        4PZ         0.01639  -0.00313   0.00202  -0.01571   0.01759
  61 5   H  1S          0.06895   0.19991   0.03626   0.03385  -0.03577
  62        2S          0.10655   0.37796   0.07077   0.05987  -0.07703
  63        3S          0.10187   0.45871   0.12698   0.21369  -0.22631
  64        4PX        -0.00101  -0.00434  -0.00306  -0.00159  -0.00086
  65        4PY         0.00246   0.00457   0.00745   0.00749  -0.00444
  66        4PZ         0.00469   0.00263   0.00490  -0.00209  -0.00092
                          16        17        18        19        20
                           V         V         V         V         V
     Eigenvalues --     0.22388   0.25882   0.36529   0.41937   0.45500
   1 1   N  1S         -0.06620   0.02648  -0.00076   0.00868   0.04772
   2        2S         -0.10756   0.04445   0.00102   0.01917   0.09022
   3        2PX        -0.07468   0.03653   0.03710   0.14926  -0.06000
   4        2PY         0.03331  -0.04970  -0.04488   0.04784   0.03264
   5        2PZ        -0.02843  -0.00061   0.05076  -0.02348  -0.02311
   6        3S          0.25881  -0.15717  -0.07440  -0.22307  -0.65244
   7        3PX        -0.12267   0.03307   0.10020   0.23757  -0.05478
   8        3PY         0.05239  -0.08990  -0.08318   0.09699   0.11069
   9        3PZ        -0.03839  -0.00709   0.08442  -0.07906  -0.05960
  10        4S          2.57338  -0.80004   0.25452   1.27055  -1.87848
  11        4PX        -0.43269   0.47461   0.02552   4.96868  -1.71639
  12        4PY         0.22667  -0.04626  -0.25024   0.57440  -0.43780
  13        4PZ        -0.16960   0.09175   0.28718   0.26344   0.06223
  14        5D 0        0.03116  -0.01007   0.00681   0.00747   0.00560
  15        5D+1       -0.00882  -0.00141   0.01956  -0.00533  -0.00955
  16        5D-1        0.00129   0.00014  -0.02119   0.00905  -0.00049
  17        5D+2       -0.05312   0.01467  -0.00981  -0.01329  -0.01203
  18        5D-2       -0.01379  -0.00893  -0.01607   0.00599   0.00849
  19 2   N  1S          0.04379  -0.00723   0.01250   0.04585   0.00276
  20        2S          0.07432  -0.01145   0.02208   0.07820   0.01567
  21        2PX         0.14556  -0.03692   0.03129   0.02028   0.06522
  22        2PY        -0.00331  -0.00454   0.00340  -0.00723   0.00507
  23        2PZ         0.01928  -0.00079  -0.00108  -0.00288   0.00992
  24        3S         -0.29913   0.02472  -0.09809  -0.25645  -0.32628
  25        3PX         0.21777  -0.03681   0.05846   0.03935   0.33211
  26        3PY        -0.00117  -0.03352  -0.03782  -0.02053   0.07599
  27        3PZ         0.02609   0.00114   0.04074  -0.02168   0.01684
  28        4S         -0.57307  -0.03437  -0.09889  -4.81790   2.83696
  29        4PX         0.58154  -0.13341   0.10866   2.65879  -2.14952
  30        4PY        -0.03602   0.10327   0.22338   0.64788  -0.46283
  31        4PZ         0.09023  -0.03237  -0.20885   0.01188  -0.03205
  32        5D 0       -0.00103  -0.00107  -0.00074   0.00243   0.01990
  33        5D+1        0.00356   0.00068  -0.01017   0.00775   0.00774
  34        5D-1        0.00151   0.00064  -0.00479   0.00228   0.00014
  35        5D+2        0.00505  -0.00572  -0.00452  -0.00025  -0.02578
  36        5D-2       -0.00519   0.00719   0.00976  -0.00832  -0.02868
  37 3   N  1S          0.04543  -0.01654   0.02443  -0.01615   0.01093
  38        2S          0.07528  -0.02756   0.04353  -0.02004   0.02441
  39        2PX        -0.20642   0.04661   0.03458  -0.05377  -0.08708
  40        2PY        -0.02433   0.02766   0.07319  -0.03980  -0.04048
  41        2PZ         0.00781   0.01669  -0.09207   0.00270   0.02740
  42        3S         -0.23686   0.10258  -0.17858  -0.15905  -0.20610
  43        3PX        -0.30914   0.04256   0.02045  -0.26109  -0.38992
  44        3PY        -0.01631   0.07306   0.13732  -0.08550  -0.10839
  45        3PZ         0.00646   0.03079  -0.19997  -0.00224   0.07300
  46        4S         -1.21700   0.38869  -0.47665   4.23668  -0.47520
  47        4PX        -1.13574   0.64947   0.62137   2.48256   0.35327
  48        4PY        -0.15127  -0.14569   0.74222  -0.46840   0.25211
  49        4PZ        -0.06084  -0.01412  -0.60560   0.64211  -0.17090
  50        5D 0       -0.00572   0.01624  -0.00203   0.00861   0.01406
  51        5D+1       -0.00658   0.00591  -0.00695  -0.01483  -0.00426
  52        5D-1        0.00264  -0.00282  -0.01361  -0.00497   0.00589
  53        5D+2        0.01704  -0.00173  -0.00997  -0.02710  -0.03099
  54        5D-2        0.01621   0.00274   0.00597   0.00957   0.00183
  55 4   H  1S          0.01589  -0.00822   0.12828  -0.02818  -0.01531
  56        2S          0.16126   0.08065   1.96450  -0.82262  -0.02312
  57        3S         -0.59597  -0.17854  -0.90716   0.35980   0.05160
  58        4PX        -0.02763  -0.00012   0.03236  -0.00968   0.03385
  59        4PY         0.01990   0.02498  -0.00581  -0.02945   0.00417
  60        4PZ        -0.01395   0.01059   0.00048   0.02042  -0.00878
  61 5   H  1S         -0.03389  -0.11705   0.01773  -0.00028   0.00692
  62        2S         -0.35541  -1.22803   0.11843   0.11425   0.11628
  63        3S          0.45041   1.69467  -0.02158  -0.00731  -0.15131
  64        4PX        -0.00942   0.00763   0.02569   0.04449   0.03177
  65        4PY        -0.00350   0.00469   0.02726  -0.00009   0.00002
  66        4PZ        -0.00348  -0.00123  -0.02620   0.02487  -0.00413
                          21        22        23        24        25
                           V         V         V         V         V
     Eigenvalues --     0.50107   0.52807   0.60240   0.64562   0.67526
   1 1   N  1S         -0.00615  -0.00146  -0.01551   0.03158   0.03991
   2        2S         -0.01175  -0.00253  -0.03035   0.06146   0.07720
   3        2PX        -0.02053   0.00615  -0.03600  -0.02177  -0.10020
   4        2PY        -0.04301  -0.10747  -0.00828  -0.07333   0.06789
   5        2PZ        -0.10747   0.02797   0.02723  -0.00792   0.01669
   6        3S          0.07576   0.01641   0.20290  -0.38748  -0.48860
   7        3PX        -0.02687   0.02259  -0.09078  -0.24255  -0.46725
   8        3PY        -0.16129  -0.45310  -0.03018  -0.25822   0.24155
   9        3PZ        -0.43671   0.12952   0.10883  -0.04296   0.04126
  10        4S         -0.32707  -0.15771  -0.73875   0.75553   0.47690
  11        4PX        -0.30037   0.28707   1.12853   0.07461   1.33216
  12        4PY         0.16784   0.68131   0.26148   0.38284  -0.56001
  13        4PZ         0.51491  -0.20204  -0.31941   0.14991  -0.14988
  14        5D 0        0.00816   0.00828   0.01156   0.00106  -0.00586
  15        5D+1       -0.00320   0.00153   0.06650   0.01480   0.01742
  16        5D-1       -0.00665   0.00856   0.02123  -0.00627   0.00297
  17        5D+2        0.00024   0.00739  -0.01447   0.00307   0.01319
  18        5D-2       -0.00313  -0.01831   0.00385   0.03898  -0.04960
  19 2   N  1S         -0.00705   0.00214  -0.01490   0.04584   0.04757
  20        2S         -0.01245   0.00404  -0.02832   0.08850   0.09329
  21        2PX         0.01730   0.03239   0.02109  -0.12677  -0.11665
  22        2PY        -0.03442  -0.15346   0.03002   0.09341  -0.12310
  23        2PZ        -0.12604   0.04866   0.13195   0.01797  -0.00255
  24        3S          0.04718  -0.03613   0.16530  -0.63913  -0.72435
  25        3PX         0.06466   0.11690   0.09293  -0.41250  -0.30106
  26        3PY        -0.12513  -0.54625   0.11633   0.32086  -0.42044
  27        3PZ        -0.45612   0.16808   0.46036   0.07216  -0.00732
  28        4S          0.36815  -0.20239  -0.76039   0.46083  -0.03262
  29        4PX        -0.34578  -0.09884   0.04220   0.38758   0.19364
  30        4PY         0.06665   0.63216  -0.16515  -0.64820   0.88835
  31        4PZ         0.50040  -0.17722  -0.61387  -0.17574   0.04703
  32        5D 0       -0.00017  -0.00017  -0.00247   0.00299   0.01205
  33        5D+1        0.03397  -0.00993  -0.02570  -0.00502  -0.00433
  34        5D-1        0.00758  -0.00176  -0.00084  -0.00344   0.00161
  35        5D+2       -0.00427  -0.01352   0.00332  -0.00491  -0.02610
  36        5D-2        0.01109   0.03720  -0.00519  -0.00966   0.00263
  37 3   N  1S         -0.00524   0.00477  -0.01387  -0.01023  -0.00974
  38        2S         -0.01012   0.00944  -0.02465  -0.02001  -0.01773
  39        2PX        -0.01495  -0.00639  -0.05182   0.05699   0.02902
  40        2PY        -0.02783  -0.08410  -0.00111  -0.12831   0.07473
  41        2PZ        -0.12942   0.03714  -0.16487   0.00032  -0.03874
  42        3S          0.06354  -0.07588   0.07421   0.21113   0.12816
  43        3PX        -0.01220  -0.00106  -0.11625   0.15081   0.07009
  44        3PY        -0.11821  -0.28117  -0.02028  -0.45871   0.24643
  45        3PZ        -0.44754   0.11555  -0.58002  -0.04049  -0.13248
  46        4S         -0.07764   0.31648   1.33075  -0.81186   0.75917
  47        4PX        -0.14338   0.12218   0.53585  -0.37770  -0.08453
  48        4PY         0.09351   0.15648  -0.37250   0.90784  -0.38762
  49        4PZ         0.47115   0.00448   1.33695  -0.22351   0.42140
  50        5D 0       -0.01244   0.00007  -0.01558   0.01590  -0.00131
  51        5D+1       -0.02578   0.00894  -0.03663   0.00343  -0.01686
  52        5D-1       -0.00276   0.00450   0.00052   0.00047  -0.00158
  53        5D+2        0.01145  -0.00080   0.02262  -0.00908  -0.00496
  54        5D-2       -0.00152  -0.01908   0.01161  -0.03304   0.02666
  55 4   H  1S          0.00794  -0.02515   0.00231  -0.00880   0.01450
  56        2S         -0.00077  -0.32075  -0.56324   0.34359  -0.11384
  57        3S         -0.16558   0.50827  -0.03318   0.29896  -0.34723
  58        4PX        -0.02067  -0.01515  -0.09998   0.03166  -0.04117
  59        4PY        -0.01343   0.01460  -0.01912   0.07473  -0.03304
  60        4PZ         0.00628  -0.02080   0.02750  -0.03164   0.01078
  61 5   H  1S          0.00289   0.01552  -0.00949   0.01136   0.01797
  62        2S         -0.04054   0.10680  -0.09139  -0.14046   0.03117
  63        3S         -0.04349  -0.35015   0.13626  -0.18698   0.08574
  64        4PX         0.00568   0.02613  -0.00101   0.01278  -0.06718
  65        4PY         0.00424  -0.00370  -0.00913   0.00802  -0.00686
  66        4PZ         0.02594   0.00562   0.08435  -0.01687   0.02250
                          26        27        28        29        30
                           V         V         V         V         V
     Eigenvalues --     0.68842   0.74251   0.77417   0.91640   1.02248
   1 1   N  1S         -0.00262  -0.01907  -0.04597   0.00014   0.00105
   2        2S         -0.00505  -0.03778  -0.08986   0.00109  -0.00093
   3        2PX        -0.02720  -0.00043  -0.12709   0.27615  -0.16978
   4        2PY        -0.07624   0.13072  -0.03425   0.01918   0.01693
   5        2PZ         0.16892   0.08398  -0.04748   0.00668  -0.02693
   6        3S          0.02843   0.28749   0.69860  -0.10450   0.06057
   7        3PX        -0.14204  -0.03537  -0.51166   0.22604  -0.45861
   8        3PY        -0.26700   0.45244  -0.12452   0.03355   0.08586
   9        3PZ         0.57101   0.28308  -0.16790  -0.03257  -0.10408
  10        4S         -0.46901  -0.19030  -1.73476   1.57716   0.72316
  11        4PX         2.00669  -0.51345   2.79860   2.99462  10.15081
  12        4PY         0.95603  -1.59481   0.29241   0.37150   0.63316
  13        4PZ        -1.47139  -0.70710   0.79665   0.24218   0.75182
  14        5D 0        0.00535  -0.01051   0.01148   0.00298  -0.00812
  15        5D+1       -0.01769  -0.00227  -0.00202   0.05266   0.03112
  16        5D-1        0.01970  -0.02076  -0.02067   0.00223   0.04096
  17        5D+2       -0.01318   0.00385  -0.02322   0.02185   0.01618
  18        5D-2       -0.00940   0.01506  -0.02122  -0.09916  -0.04380
  19 2   N  1S          0.00432  -0.01287  -0.00671   0.03930  -0.04014
  20        2S          0.00819  -0.02623  -0.01545   0.07155  -0.08071
  21        2PX        -0.00858   0.04191  -0.01932   0.22639  -0.03915
  22        2PY         0.04693  -0.03954   0.00856   0.06550   0.01661
  23        2PZ        -0.12868  -0.04756   0.00849  -0.00365  -0.00958
  24        3S         -0.08054   0.21613   0.06621  -0.37978   0.65166
  25        3PX         0.01436   0.07481  -0.11027   0.64016   0.19859
  26        3PY         0.17349  -0.17520   0.00604   0.14827   0.05907
  27        3PZ        -0.45609  -0.16587   0.04926   0.00993  -0.00077
  28        4S         -1.35847   0.37759  -1.50872  -2.81969  -9.05883
  29        4PX         0.44541  -0.30575   0.43689   0.61922   3.20540
  30        4PY        -0.35189   0.72091   0.13644   0.25108   1.07085
  31        4PZ         1.17955   0.47936  -0.33190  -0.12031  -0.20388
  32        5D 0        0.00267  -0.01763  -0.01565  -0.02810   0.03013
  33        5D+1        0.00361   0.00117  -0.00668  -0.02271  -0.03345
  34        5D-1        0.00557  -0.00455  -0.00833  -0.00530  -0.00538
  35        5D+2       -0.00384   0.01479   0.02163   0.02887  -0.08318
  36        5D-2       -0.00186   0.01245   0.01874   0.06069   0.03237
  37 3   N  1S         -0.00516  -0.02384  -0.05232  -0.06039   0.05902
  38        2S         -0.00813  -0.04747  -0.10293  -0.11394   0.11845
  39        2PX        -0.01749  -0.03415  -0.17891   0.18656   0.02313
  40        2PY         0.03814  -0.14558   0.01610  -0.01180  -0.04447
  41        2PZ        -0.02532  -0.01855   0.06346   0.03997   0.01783
  42        3S         -0.04132   0.42429   0.79540   0.74678  -1.07285
  43        3PX        -0.07938  -0.02820  -0.37534   0.51373   0.23455
  44        3PY         0.11842  -0.50450   0.12724   0.02071  -0.21135
  45        3PZ        -0.06043  -0.14580   0.17965   0.05842   0.19704
  46        4S          1.88061  -1.50176   0.90089   1.00567   9.12436
  47        4PX         0.90261  -0.06320   2.03313   0.09330   3.28304
  48        4PY        -0.75257   1.75028   0.09925  -0.20717  -0.38779
  49        4PZ         0.90026  -0.01920  -0.69815   0.06128   0.66264
  50        5D 0       -0.00411   0.00123  -0.04888   0.02607  -0.03032
  51        5D+1       -0.01229   0.01916   0.03614  -0.03417  -0.06021
  52        5D-1        0.00129   0.00163   0.01411   0.01852   0.01790
  53        5D+2       -0.00420   0.03326   0.07259  -0.03506   0.03809
  54        5D-2        0.02017  -0.03482   0.00014   0.06580   0.09483
  55 4   H  1S          0.03488  -0.02942  -0.00213   0.04316   0.09244
  56        2S         -0.52755   0.60934   0.49556  -0.11370  -0.84910
  57        3S          0.12560   0.48576   0.78062   0.10455  -0.06544
  58        4PX        -0.15081   0.08568  -0.00468  -0.06991  -0.31646
  59        4PY        -0.03304   0.14085   0.10302   0.04938  -0.08901
  60        4PZ        -0.00270  -0.04667  -0.15977  -0.08350   0.05036
  61 5   H  1S         -0.00260   0.01352   0.01489   0.03174   0.01300
  62        2S          0.11062  -0.36728   0.23720   0.05236  -0.21615
  63        3S          0.02882   0.02883   0.06495  -0.03274   0.11127
  64        4PX         0.01943  -0.03300   0.00166  -0.10230   0.18025
  65        4PY         0.00061   0.00938   0.12245   0.05104  -0.05137
  66        4PZ         0.06677  -0.03161  -0.03143   0.03360   0.10667
                          31        32        33        34        35
                           V         V         V         V         V
     Eigenvalues --     1.11935   1.21966   1.35891   1.39737   1.44629
   1 1   N  1S          0.07947  -0.01001  -0.00593  -0.00200  -0.00178
   2        2S          0.15307  -0.01948  -0.01248  -0.00465  -0.00309
   3        2PX        -0.10578  -0.00453  -0.06362  -0.03182  -0.03305
   4        2PY        -0.05323  -0.00049  -0.03128  -0.01114  -0.00920
   5        2PZ         0.00626  -0.00052  -0.00601   0.00775  -0.00467
   6        3S         -1.34533   0.19365   0.06959   0.02341   0.01343
   7        3PX         0.01288  -0.02259  -0.23898  -0.17633  -0.12088
   8        3PY        -0.05014  -0.02135  -0.06845  -0.05113  -0.00214
   9        3PZ         0.00326  -0.02818  -0.01164   0.02184   0.06004
  10        4S          7.21702  -1.25478   0.78576   0.48873   0.74585
  11        4PX         1.10414   0.77714   3.69483   4.45727   2.31936
  12        4PY         0.61912   0.15436   0.57238   0.76061   0.21083
  13        4PZ        -0.09437   0.25371   0.21866   0.00797  -0.18447
  14        5D 0       -0.10959   0.13565   0.00163   0.01300  -0.02829
  15        5D+1        0.02524   0.04571   0.00796  -0.01260  -0.41112
  16        5D-1       -0.00973   0.00642  -0.05834   0.08938  -0.06541
  17        5D+2        0.20881   0.00881   0.01315   0.00256   0.05679
  18        5D-2        0.04787   0.02063   0.01186   0.03124  -0.18862
  19 2   N  1S         -0.07225   0.00635  -0.01252  -0.00590  -0.00445
  20        2S         -0.13826   0.01168  -0.02620  -0.01321  -0.01006
  21        2PX        -0.13385   0.01188   0.00146   0.02333   0.00381
  22        2PY        -0.02774  -0.00286   0.01232   0.00543   0.04254
  23        2PZ        -0.00127  -0.01503  -0.00629  -0.00010   0.06834
  24        3S          1.16715  -0.11095   0.24104   0.14415   0.10533
  25        3PX         0.04226  -0.00959   0.06372   0.12600   0.04551
  26        3PY         0.01296  -0.00717   0.03363   0.02783   0.07276
  27        3PZ        -0.00037  -0.02047  -0.00570  -0.00271   0.11344
  28        4S         -5.11974  -0.00915  -3.55689  -3.98506  -2.23039
  29        4PX         2.44024  -0.07565   1.34178   1.44647   0.81932
  30        4PY         0.35619  -0.01953   0.25357   0.28259   0.22261
  31        4PZ         0.04857  -0.07805  -0.03020   0.03663   0.08162
  32        5D 0        0.08848   0.01602   0.01065   0.01260  -0.00318
  33        5D+1       -0.00333  -0.03773  -0.01307  -0.00292   0.25928
  34        5D-1       -0.00153  -0.01034  -0.02448   0.03311   0.06010
  35        5D+2       -0.13134   0.03031  -0.01806  -0.00530  -0.07606
  36        5D-2       -0.06122   0.00118   0.00023  -0.01593   0.13120
  37 3   N  1S         -0.02659   0.01392   0.00227   0.00366   0.00826
  38        2S         -0.05167   0.02932   0.00278   0.00888   0.01837
  39        2PX         0.00482  -0.01960  -0.04371   0.00100  -0.01232
  40        2PY         0.00567   0.01414  -0.00259  -0.00081  -0.02197
  41        2PZ         0.01136  -0.00744   0.00218  -0.03599  -0.08118
  42        3S          0.56234  -0.31366  -0.02433  -0.17889  -0.20716
  43        3PX        -0.10612   0.02282  -0.06778   0.03676   0.11219
  44        3PY         0.04926  -0.05714  -0.03691   0.04704  -0.11325
  45        3PZ        -0.06301   0.03696   0.07509  -0.06091  -0.10530
  46        4S         -2.40882   1.61782   2.49000   3.65530   1.90187
  47        4PX        -1.04929   0.58516   1.16952   1.43827   0.21425
  48        4PY        -0.00046  -0.29387  -0.10082  -0.67450   0.05291
  49        4PZ        -0.19021  -0.12557   0.02809   0.67057   0.37886
  50        5D 0        0.04085   0.24661   0.01554  -0.01957   0.13685
  51        5D+1       -0.02393  -0.08942  -0.01006  -0.00268   0.36177
  52        5D-1        0.00226  -0.02766  -0.09868   0.04123  -0.06115
  53        5D+2       -0.01303   0.16798  -0.02374  -0.02776   0.01704
  54        5D-2        0.03951   0.00226  -0.05006  -0.08427   0.16927
  55 4   H  1S         -0.01465   0.03796   0.10835  -0.04634  -0.07211
  56        2S          0.38402  -0.29365  -0.16273  -0.46548  -0.17333
  57        3S         -0.03042   0.02151   0.12179   0.01005  -0.04029
  58        4PX        -0.06123  -0.08655   0.33927   0.02448   0.28205
  59        4PY         0.13397   0.49877  -0.20080  -0.00830  -0.15427
  60        4PZ        -0.08895   0.59599   0.12787   0.15725   0.12011
  61 5   H  1S          0.01859   0.06358  -0.00263  -0.00806   0.03152
  62        2S          0.17602   0.07455  -0.03331   0.01151  -0.09227
  63        3S         -0.14853  -0.11891   0.07747   0.11579  -0.10447
  64        4PX        -0.16251  -0.22871  -0.62157  -0.17095  -0.07458
  65        4PY         0.13994   0.22384  -0.55200  -0.13994   0.36261
  66        4PZ        -0.01314   0.09447   0.26519  -0.93725   0.01110
                          36        37        38        39        40
                           V         V         V         V         V
     Eigenvalues --     1.50053   1.64723   1.65909   1.70501   1.82902
   1 1   N  1S         -0.00990  -0.00124  -0.00014   0.00028   0.00111
   2        2S         -0.02013  -0.00186  -0.00050  -0.00053   0.00330
   3        2PX         0.01981  -0.03996   0.00161   0.06100  -0.00839
   4        2PY        -0.01494  -0.02795  -0.01508   0.01913   0.03638
   5        2PZ        -0.00877   0.03116  -0.01386  -0.01221  -0.03572
   6        3S          0.29352   0.01359   0.00040   0.05250  -0.01276
   7        3PX         0.21232  -0.03121  -0.03383   0.02170  -0.00196
   8        3PY         0.06240  -0.04344  -0.02975   0.01325   0.02624
   9        3PZ        -0.01572   0.04665  -0.02139  -0.01524  -0.00801
  10        4S         -3.78474   0.26987   0.24568  -1.09203   0.09286
  11        4PX        -4.08539   0.68738   0.95678   1.49464   0.89996
  12        4PY        -0.87853   0.32363   0.12335  -0.11325  -0.09841
  13        4PZ        -0.04265  -0.25432   0.07867   0.41910  -0.20249
  14        5D 0       -0.01982  -0.08166  -0.60678  -0.04958   0.05526
  15        5D+1        0.01993   0.20498   0.02761  -0.24051   0.24160
  16        5D-1        0.04726  -0.58870   0.13435  -0.36840  -0.02347
  17        5D+2       -0.05769  -0.08998  -0.36650  -0.05526   0.00217
  18        5D-2       -0.32079  -0.09647   0.00467   0.24960   0.02315
  19 2   N  1S          0.00954  -0.00371  -0.00044   0.00690   0.00135
  20        2S          0.01934  -0.00871  -0.00115   0.01457   0.00206
  21        2PX        -0.05423  -0.00520   0.01356   0.02923   0.01286
  22        2PY         0.04224   0.01220  -0.01870  -0.03442   0.01180
  23        2PZ         0.00025  -0.01738  -0.00757   0.05408  -0.04928
  24        3S         -0.26317   0.07205   0.02243  -0.11646  -0.00938
  25        3PX        -0.25991  -0.02828   0.04230   0.09500   0.02552
  26        3PY         0.03503   0.01384  -0.02835  -0.04586   0.00775
  27        3PZ        -0.00343  -0.02815  -0.01191   0.08560  -0.07055
  28        4S          5.12310  -0.72303  -0.89698  -0.69765  -0.70842
  29        4PX        -1.98873   0.30189   0.32490   0.14390   0.23793
  30        4PY        -0.39069  -0.01294   0.09373   0.17922   0.11366
  31        4PZ        -0.03456   0.10680  -0.01355  -0.17813   0.14986
  32        5D 0       -0.05965  -0.07161  -0.45948  -0.03407   0.06260
  33        5D+1       -0.01688   0.03659  -0.05871   0.29691  -0.23038
  34        5D-1        0.01522  -0.43108   0.07811  -0.27535  -0.22981
  35        5D+2       -0.07197  -0.07614  -0.20528   0.07827   0.00576
  36        5D-2        0.17731   0.01807  -0.20297  -0.17001   0.09934
  37 3   N  1S          0.03021   0.02074  -0.00027  -0.00768   0.00756
  38        2S          0.06164   0.04375  -0.00029  -0.01276   0.01858
  39        2PX        -0.03713   0.00028   0.00137   0.03490  -0.05220
  40        2PY        -0.05000   0.01940   0.00258  -0.01595  -0.06528
  41        2PZ         0.00250  -0.01877  -0.00053   0.01660   0.09760
  42        3S         -0.54424  -0.34475  -0.02857  -0.03066  -0.27796
  43        3PX        -0.12112   0.11907   0.03475   0.01781   0.04081
  44        3PY        -0.14020   0.14647  -0.05665  -0.04700  -0.18545
  45        3PZ        -0.02867  -0.14047   0.01898   0.07619   0.04076
  46        4S         -1.05860   0.86691   0.76129   1.58027   1.13928
  47        4PX        -0.01802  -0.16291   0.19167   1.30209   0.06199
  48        4PY         0.51945  -0.45895   0.00113   0.12920   0.54359
  49        4PZ         0.01330   0.46899  -0.01188  -0.17738   0.24118
  50        5D 0       -0.02018  -0.07169  -0.07789   0.03523  -0.05111
  51        5D+1       -0.06671  -0.10809   0.05354   0.10885   0.05501
  52        5D-1        0.08634  -0.17275   0.01371   0.11247   0.21258
  53        5D+2        0.02226  -0.00147  -0.06384   0.00541   0.05337
  54        5D-2        0.30423   0.11862  -0.02010  -0.14115  -0.14872
  55 4   H  1S          0.10525   0.16959  -0.02863  -0.34027  -0.63618
  56        2S         -0.18676  -0.70145  -0.01478   0.69107   0.77498
  57        3S          0.12826   0.12178  -0.00177  -0.20868  -0.35006
  58        4PX        -0.39816   0.34805   0.00893  -0.60662   0.12075
  59        4PY         0.07458   0.17501   0.06136   0.06338  -0.41169
  60        4PZ        -0.32843  -0.09178   0.18797  -0.06397   0.03572
  61 5   H  1S         -0.00247   0.00898  -0.01783  -0.01260  -0.40886
  62        2S         -0.03757  -0.01320   0.03246   0.03020   0.32008
  63        3S         -0.12152  -0.02060  -0.08601   0.08554  -0.35217
  64        4PX        -0.51344   0.10694  -0.08318  -0.18084  -0.29935
  65        4PY         0.04036   0.11394   0.12356  -0.18187   0.50983
  66        4PZ        -0.09986  -0.15079   0.05341   0.02095   0.07435
                          41        42        43        44        45
                           V         V         V         V         V
     Eigenvalues --     1.85406   2.07465   2.10162   2.16987   2.23896
   1 1   N  1S         -0.01040  -0.00078   0.00383   0.00149   0.00733
   2        2S         -0.02136  -0.00242   0.00878   0.00272   0.02051
   3        2PX        -0.01111   0.00006  -0.00060  -0.01716   0.03280
   4        2PY        -0.02384  -0.04807   0.01525   0.07099   0.14270
   5        2PZ         0.01828  -0.02624   0.00615   0.10862  -0.07145
   6        3S          0.23995   0.01508  -0.05226  -0.07536  -0.17982
   7        3PX        -0.10426  -0.01516   0.03664   0.00516   0.04741
   8        3PY        -0.01610  -0.01447  -0.01794   0.01878   0.00084
   9        3PZ         0.01531  -0.02151   0.01919   0.01261   0.00228
  10        4S         -0.99496   0.07475  -0.00242   0.53680  -0.45859
  11        4PX         3.49651  -0.48682   0.75420  -1.01610   1.32337
  12        4PY        -0.03736  -0.09057   0.21274   0.34980   0.49509
  13        4PZ         0.06780  -0.03194   0.12394   0.35454   0.00713
  14        5D 0        0.06776  -0.39873  -0.15975  -0.04326  -0.16545
  15        5D+1       -0.06303   0.00200   0.05614  -0.06467  -0.09180
  16        5D-1        0.05478   0.15536  -0.51495   0.03031   0.20946
  17        5D+2       -0.11836  -0.23982  -0.10636   0.06517   0.12545
  18        5D-2        0.33433  -0.07963  -0.04296  -0.09802   0.09511
  19 2   N  1S          0.00154  -0.00186   0.00065   0.00025   0.00914
  20        2S          0.00212  -0.00392   0.00097   0.00131   0.02278
  21        2PX         0.03974  -0.00681   0.01002  -0.01193  -0.00098
  22        2PY        -0.04943  -0.00881   0.01650   0.01329   0.02002
  23        2PZ         0.01139  -0.00299  -0.00060   0.02868  -0.00187
  24        3S         -0.01124   0.02750  -0.00295  -0.00662  -0.19540
  25        3PX         0.07820  -0.03117   0.01904   0.00056   0.18702
  26        3PY        -0.07821  -0.01841   0.01335   0.03941   0.06214
  27        3PZ         0.01535  -0.00866   0.00840   0.03814  -0.00136
  28        4S         -2.36643   0.36113  -0.63126   0.54043  -0.82676
  29        4PX         0.74335  -0.12228   0.23763  -0.12727   0.21415
  30        4PY         0.44898   0.00699  -0.01452  -0.26890  -0.17040
  31        4PZ        -0.01824   0.01918  -0.03328  -0.23604   0.05099
  32        5D 0        0.13631   0.64148   0.22111   0.00185  -0.02816
  33        5D+1        0.03170  -0.02877  -0.10281   0.42498  -0.14811
  34        5D-1        0.18768  -0.25818   0.70376   0.04467  -0.21385
  35        5D+2        0.18513   0.38271   0.09043  -0.14191  -0.02602
  36        5D-2       -0.24655   0.02433   0.12253   0.30914   0.46991
  37 3   N  1S          0.03558  -0.00750   0.00561  -0.00839   0.02396
  38        2S          0.07306  -0.01799   0.01785  -0.02264   0.05647
  39        2PX         0.05799  -0.00355  -0.01751   0.01791   0.02892
  40        2PY         0.08585  -0.01560  -0.05839  -0.02771   0.05817
  41        2PZ        -0.04068  -0.03270   0.05605  -0.02819  -0.01734
  42        3S         -0.70031   0.17393  -0.21437   0.28366  -0.53560
  43        3PX         0.31019  -0.05833   0.10606  -0.14856   0.03084
  44        3PY        -0.00215  -0.09151   0.17297  -0.06215   0.22263
  45        3PZ        -0.11606   0.06344  -0.11654   0.13541  -0.18474
[...]
                     A                      A                      A
 Frequencies --   566.3017               637.3014              1169.9863
 Red. masses --     4.9647                 3.2105                 1.7331
 Frc consts  --     0.9381                 0.7683                 1.3978
 IR Inten    --     9.5810                18.3396               152.0631
  Atom  AN      X      Y      Z        X      Y      Z        X      Y      Z
     1   7     0.02  -0.19   0.41    -0.06   0.30   0.17     0.05  -0.05   0.07
     2   7    -0.02   0.10  -0.22     0.03  -0.15  -0.10     0.07   0.01  -0.01
     3   7     0.06   0.06  -0.19    -0.01  -0.10  -0.04    -0.18   0.06  -0.08
     4   1    -0.51   0.33  -0.31     0.07  -0.52  -0.45     0.85  -0.38   0.28
     5   1    -0.32   0.04   0.35     0.54  -0.24  -0.09    -0.01   0.09  -0.03
                     7                      8                      9
                     A                      A                      A
 Frequencies --  1290.7616              2279.3344              3521.8931
 Red. masses --     2.9136                12.1601                 1.0763
 Frc consts  --     2.8600                37.2222                 7.8653
 IR Inten    --     3.7979               430.9262                59.3057
  Atom  AN      X      Y      Z        X      Y      Z        X      Y      Z
     1   7     0.08   0.03  -0.02     0.72   0.12   0.01    -0.00   0.00  -0.00
     2   7     0.25   0.03   0.01    -0.53  -0.11  -0.00    -0.00  -0.00  -0.00
     3   7    -0.26  -0.07   0.02    -0.17  -0.02   0.00     0.04   0.05  -0.04
     4   1    -0.88   0.13  -0.20    -0.36   0.03  -0.08    -0.47  -0.66   0.59
     5   1    -0.06   0.14   0.04     0.03  -0.04  -0.02     0.00  -0.01  -0.00

 -------------------
 - Thermochemistry -
 -------------------
 Temperature   298.150 Kelvin.  Pressure   1.00000 Atm.
 Atom     1 has atomic number  7 and mass  14.00307
 Atom     2 has atomic number  7 and mass  14.00307
 Atom     3 has atomic number  7 and mass  14.00307
 Atom     4 has atomic number  1 and mass   1.00783
 Atom     5 has atomic number  1 and mass   1.00783
 Molecular mass:    44.02487 amu.
 Principal axes and moments of inertia in atomic units:
                           1         2         3
     Eigenvalues --    12.63354 162.81462 172.13226
           X            0.99895  -0.03845  -0.02491
           Y            0.03806   0.99914  -0.01632
           Z            0.02552   0.01536   0.99956
 This molecule is an asymmetric top.
 Rotational symmetry number  1.
 Rotational temperatures (Kelvin)      6.85586     0.53198     0.50318
 Rotational constants (GHZ):         142.85317    11.08464    10.48462
    1 imaginary frequencies ignored.
 Zero-point vibrational energy      60387.1 (Joules/Mol)
                                   14.43286 (Kcal/Mol)
 Warning -- explicit consideration of   3 degrees of freedom as
           vibrations may cause significant error
 Vibrational temperatures:    354.24   552.70   814.78   916.93  1683.35
          (Kelvin)           1857.12  3279.45  5067.21
 
 Zero-point correction=                           0.023000 (Hartree/Particle)
 Thermal correction to Energy=                    0.027000
 Thermal correction to Enthalpy=                  0.027945
 Thermal correction to Gibbs Free Energy=        -0.001944
 Sum of electronic and zero-point Energies=           -165.200248
 Sum of electronic and thermal Energies=              -165.196247
 Sum of electronic and thermal Enthalpies=            -165.195303
 Sum of electronic and thermal Free Energies=         -165.225192
 
                     E (Thermal)             CV                S
                      KCal/Mol        Cal/Mol-Kelvin    Cal/Mol-Kelvin
 Total                   16.943             11.675             62.906
 Electronic               0.000              0.000              1.377
 Translational            0.889              2.981             37.273
 Rotational               0.889              2.981             20.498
 Vibrational             15.166              5.713              3.757
 Vibration     1          0.661              1.769              1.758
 Vibration     2          0.753              1.504              1.023
 Vibration     3          0.922              1.104              0.511
                       Q            Log10(Q)             Ln(Q)
 Total Bot       0.783591D+01          0.894089          2.058717
 Total V=0       0.297463D+12         11.473433         26.418557
 Vib (Bot)       0.506606D-10        -10.295330        -23.705873
 Vib (Bot)    1  0.794126D+00         -0.100110         -0.230513
 Vib (Bot)    2  0.469305D+00         -0.328545         -0.756502
 Vib (Bot)    3  0.272765D+00         -0.564212         -1.299145
 Vib (V=0)       0.192315D+01          0.284014          0.653967
 Vib (V=0)    1  0.143842D+01          0.157886          0.363547
 Vib (V=0)    2  0.118575D+01          0.073992          0.170372
 Vib (V=0)    3  0.106956D+01          0.029206          0.067249
 Electronic      0.200000D+01          0.301030          0.693147
 Translational   0.114816D+08          7.060002         16.256256
 Rotational      0.673576D+04          3.828387          8.815186
 
                                                         RC, from TS 3reverse
                                                             IR Spectrum
 
     3                                            2                                   1   1                                          
     5                                            2                                   2   1                   6 5      3    2        
     2                                            7                                   9   7                   3 6      8    4        
     2                                            9                                   1   0                   7 6      4    6        
 
     X                                            X                                   X   X                   X X      X    X        
     X                                            X                                       X                            X             
     X                                            X                                       X                            X             
                                                  X                                       X                                          
                                                  X                                       X                                          
                                                  X                                       X                                          
                                                  X                                       X                                          
                                                  X                                                                                  
                                                  X                                                                                  
                                                  X                                                                                  
                                                  X                                                                                  
                                                  X                                                                                  
                                                  X                                                                                  
                                                  X                                                                                  
                                                  X                                                                                  
                                                  X                                                                                  
                                                  X                                                                                  
                                                  X                                                                                  
                                                  X                                                                                  
                                                  X                                                                                  
 
 ***** Axes restored to original set *****
 -------------------------------------------------------------------
 Center     Atomic                   Forces (Hartrees/Bohr)
 Number     Number              X              Y              Z
 -------------------------------------------------------------------
      1        7           0.001659885    0.001887627    0.000442075
      2        7          -0.000975180   -0.001030137   -0.000569673
      3        7          -0.001998244   -0.003133065    0.000793465
      4        1          -0.000284737   -0.000058555    0.000173831
      5        1           0.001598275    0.002334130   -0.000839697
 -------------------------------------------------------------------
 Cartesian Forces:  Max     0.003133065 RMS     0.001463138
 Z-matrix is all fixed cartesians, so copy forces.
 Force constants in Cartesian coordinates: 
                1             2             3             4             5 
      1  0.169364D+00
      2 -0.104449D-01  0.120673D+00
      3 -0.215374D+00  0.198990D-01  0.171999D+01
      4 -0.675311D-01  0.849967D-02  0.104810D+00  0.489267D-01
      5  0.120078D-01 -0.624394D-01 -0.407202D-01 -0.623706D-02  0.343005D-01
      6  0.132041D+00 -0.216029D-01 -0.113013D+01 -0.147897D+00  0.299753D-01
      7 -0.990629D-01  0.142590D-01  0.768817D-01  0.182013D-01 -0.122275D-01
      8  0.803485D-02 -0.320781D-01  0.271745D-01 -0.639671D-02  0.137549D-01
      9  0.103546D+00 -0.856515D-02 -0.530493D+00  0.430845D-01  0.136124D-01
     10  0.517493D-02  0.401493D-03  0.353000D-01 -0.171476D-02 -0.382047D-04
     11  0.347751D-02 -0.126522D-01  0.114012D-03 -0.706994D-03  0.665112D-02
     12 -0.274023D-01  0.275151D-03 -0.617796D-01  0.189732D-02  0.487915D-03
     13 -0.794493D-02 -0.127152D-01 -0.161770D-02  0.211789D-02  0.649502D-02
     14 -0.130752D-01 -0.135037D-01 -0.646732D-02  0.484110D-02  0.773287D-02
     15  0.719057D-02  0.999394D-02  0.241240D-02 -0.189494D-02 -0.335536D-02
                6             7             8             9            10 
      6  0.119426D+01
      7 -0.896995D-03  0.339932D+00
      8 -0.268166D-01 -0.548850D-02  0.705220D-02
      9 -0.696286D-01  0.101948D+00  0.411860D-02  0.778290D+00
     10  0.431812D-02 -0.267124D+00 -0.892966D-02 -0.234573D+00  0.262674D+00
     11 -0.841085D-03 -0.652939D-02 -0.131594D-02  0.629593D-02  0.486415D-02
     12  0.106304D-01 -0.171454D+00  0.250296D-02 -0.177285D+00  0.196231D+00
     13  0.124356D-01  0.805338D-02  0.127800D-01 -0.140053D-01  0.990248D-03
     14  0.192853D-01  0.998644D-02  0.125870D-01 -0.154617D-01  0.370222D-02
     15 -0.512613D-02 -0.647921D-02 -0.697949D-02 -0.883418D-03 -0.127560D-02
               11            12            13            14            15 
     11  0.590269D-02
     12 -0.272525D-02  0.227059D+00
     13 -0.110528D-02  0.728179D-03 -0.321659D-02
     14  0.141433D-02 -0.540780D-03 -0.545454D-02 -0.823052D-02
     15 -0.284361D-02  0.137542D-02  0.245918D-02  0.318451D-02  0.222173D-02
 Leave Link  716 at Tue Apr 29 14:50:58 2014, MaxMem=   65536000 cpu:       0.2
 (Enter /apps/gaussian/g09/l103.exe)

 GradGradGradGradGradGradGradGradGradGradGradGradGradGradGradGradGradGrad
 Berny optimization.
 Search for a local minimum.
 Step number   1 out of a maximum of    2
 All quantities printed in internal units (Hartrees-Bohrs-Radians)
 Second derivative matrix not updated -- analytic derivatives used.
 The second derivative matrix:
                          X1        Y1        Z1        X2        Y2
           X1           0.16936
           Y1          -0.01044   0.12067
           Z1          -0.21537   0.01990   1.71999
           X2          -0.06753   0.00850   0.10481   0.04893
           Y2           0.01201  -0.06244  -0.04072  -0.00624   0.03430
           Z2           0.13204  -0.02160  -1.13013  -0.14790   0.02998
           X3          -0.09906   0.01426   0.07688   0.01820  -0.01223
           Y3           0.00803  -0.03208   0.02717  -0.00640   0.01375
           Z3           0.10355  -0.00857  -0.53049   0.04308   0.01361
           X4           0.00517   0.00040   0.03530  -0.00171  -0.00004
           Y4           0.00348  -0.01265   0.00011  -0.00071   0.00665
           Z4          -0.02740   0.00028  -0.06178   0.00190   0.00049
           X5          -0.00794  -0.01272  -0.00162   0.00212   0.00650
           Y5          -0.01308  -0.01350  -0.00647   0.00484   0.00773
           Z5           0.00719   0.00999   0.00241  -0.00189  -0.00336
                          Z2        X3        Y3        Z3        X4
           Z2           1.19426
           X3          -0.00090   0.33993
           Y3          -0.02682  -0.00549   0.00705
           Z3          -0.06963   0.10195   0.00412   0.77829
           X4           0.00432  -0.26712  -0.00893  -0.23457   0.26267
           Y4          -0.00084  -0.00653  -0.00132   0.00630   0.00486
           Z4           0.01063  -0.17145   0.00250  -0.17729   0.19623
           X5           0.01244   0.00805   0.01278  -0.01401   0.00099
           Y5           0.01929   0.00999   0.01259  -0.01546   0.00370
           Z5          -0.00513  -0.00648  -0.00698  -0.00088  -0.00128
                          Y4        Z4        X5        Y5        Z5
           Y4           0.00590
           Z4          -0.00273   0.22706
           X5          -0.00111   0.00073  -0.00322
           Y5           0.00141  -0.00054  -0.00545  -0.00823
           Z5          -0.00284   0.00138   0.00246   0.00318   0.00222
     Eigenvalues ---   -0.02960   0.00589   0.00958   0.05761   0.15943
     Eigenvalues ---    0.21744   0.58008   1.05113   2.73460
 Eigenvalue     1 is  -2.96D-02 should be greater than     0.000000 Eigenvector:
                          Y5        X5        Y3        Z5        X4
   1                   -0.73416  -0.46458   0.34297   0.23675   0.17078
                          X3        Z4        Y1        X2        X1
   1                    0.10877  -0.09608  -0.07437   0.07233  -0.07006
 Angle between quadratic step and forces=  35.13 degrees.
 Linear search not attempted -- first point.
 TrRot= -0.004771 -0.011829  0.002292 -1.387742 -0.005360  1.385914
 Variable       Old X    -DE/DX   Delta X   Delta X   Delta X     New X
                                 (Linear)    (Quad)   (Total)
    X1       -0.20208   0.00166   0.00000   0.02098   0.01585  -0.18622
    Y1       -0.11762   0.00189   0.00000   0.02189   0.01136  -0.10626
    Z1        0.18010   0.00044   0.00000   0.00361   0.00623   0.18633
    X2       -0.44558  -0.00098   0.00000  -0.01289  -0.01998  -0.46556
    Y2       -0.04450  -0.00103   0.00000  -0.00133  -0.00020  -0.04470
    Z2        2.30384  -0.00057   0.00000  -0.00480  -0.00275   2.30110
    X3        0.54130  -0.00200   0.00000  -0.01638  -0.01935   0.52195
    Y3       -0.02462  -0.00313   0.00000  -0.07657  -0.10008  -0.12470
    Z3       -2.03574   0.00079   0.00000   0.00102   0.00439  -2.03135
    X4       -0.93140  -0.00028   0.00000  -0.02609  -0.02768  -0.95908
    Y4       -0.03617  -0.00006   0.00000   0.03408   0.00681  -0.02936
    Z4       -3.27517   0.00017   0.00000   0.01283   0.01423  -3.26093
    X5        2.40912   0.00160   0.00000   0.04802   0.05116   2.46028
    Y5        2.63077   0.00233   0.00000   0.11410   0.08211   2.71288
    Z5       -2.95227  -0.00084   0.00000  -0.01240  -0.02211  -2.97438
         Item               Value     Threshold  Converged?
 Maximum Force            0.003133     0.000450     NO 
 RMS     Force            0.001463     0.000300     NO 
 Maximum Displacement     0.100080     0.001800     NO 
 RMS     Displacement     0.038384     0.001200     NO 
 Predicted change in Energy=-1.019904D-03
 GradGradGradGradGradGradGradGradGradGradGradGradGradGradGradGradGradGrad

 Leave Link  103 at Tue Apr 29 14:50:58 2014, MaxMem=   65536000 cpu:       0.1
 (Enter /apps/gaussian/g09/l9999.exe)

 Test job not archived.
 1\1\GINC-ROMEO158\Freq\UM06\6-311G(d,p)\H2N3(2)\ROOT\29-Apr-2014\0\\#P
  M06 6-311G** FREQ # GFINPUT IOP(6/7=3) POP=FULL\\RC, from TS 3reverse
 \\0,2\N,-0.106935,-0.062243,0.095305\N,-0.235791,-0.023546,1.219141\N,
 0.286446,-0.013028,-1.077269\H,-0.492877,-0.01914,-1.733144\H,1.274852
 ,1.392144,-1.562272\\Version=AM64L-G09RevA.02\State=2-A\HF=-165.223247
 9\S2=0.759299\S2-1=0.\S2A=0.750009\RMSD=4.308e-09\RMSF=1.463e-03\ZeroP
 oint=0.0230002\Thermal=0.0270004\Dipole=-0.6698332,-0.1884067,-0.45427
 79\DipoleDeriv=0.0213142,-0.1693889,-0.2768357,-0.2008806,0.0132688,0.
 1580363,-0.6481957,-0.2815738,2.0064394,-0.1140692,0.0295474,0.0390521
 ,0.0899502,-0.0487491,-0.0972698,0.5147756,0.3527995,-1.1010625,-0.021
 7289,0.0998462,0.302794,0.1428218,-0.2570748,-0.1615185,0.108163,-0.06
 28343,-1.1625673,0.1612641,-0.0098625,-0.0790026,-0.0185365,0.3310681,
 0.0312256,0.0512864,0.0376693,0.3304265,-0.0467802,0.0498579,0.0139922
 ,-0.0133548,-0.038513,0.0695263,-0.0260294,-0.0460607,-0.073236\Polar=
 19.479942,7.5356326,18.6371545,-10.0535888,-7.5776328,44.2955833\PG=C0
 1 [X(H2N3)]\NImag=1\\0.16936404,-0.01044491,0.12067341,-0.21537447,0.0
 1989896,1.71999413,-0.06753110,0.00849967,0.10481043,0.04892672,0.0120
 0776,-0.06243942,-0.04072018,-0.00623706,0.03430052,0.13204055,-0.0216
 0290,-1.13013429,-0.14789731,0.02997527,1.19425861,-0.09906294,0.01425
 896,0.07688171,0.01820126,-0.01222751,-0.00089700,0.33993226,0.0080348
 5,-0.03207815,0.02717452,-0.00639671,0.01375491,-0.02681661,-0.0054885
 0,0.00705220,0.10354564,-0.00856515,-0.53049266,0.04308451,0.01361235,
 -0.06962860,0.10194841,0.00411860,0.77828986,0.00517493,0.00040149,0.0
 3530004,-0.00171476,-0.00003820,0.00431812,-0.26712397,-0.00892966,-0.
 23457325,0.26267355,0.00347751,-0.01265219,0.00011401,-0.00070699,0.00
 665112,-0.00084108,-0.00652939,-0.00131594,0.00629593,0.00486415,0.005
 90269,-0.02740229,0.00027515,-0.06177957,0.00189732,0.00048791,0.01063
 042,-0.17145391,0.00250296,-0.17728518,0.19623070,-0.00272525,0.227058
 91,-0.00794493,-0.01271522,-0.00161770,0.00211789,0.00649502,0.0124356
 4,0.00805338,0.01278002,-0.01400530,0.00099025,-0.00110528,0.00072818,
 -0.00321659,-0.01307521,-0.01350365,-0.00646732,0.00484110,0.00773287,
 0.01928532,0.00998644,0.01258698,-0.01546174,0.00370222,0.00141433,-0.
 00054078,-0.00545454,-0.00823052,0.00719057,0.00999394,0.00241240,-0.0
 0189494,-0.00335536,-0.00512613,-0.00647921,-0.00697949,-0.00088342,-0
 .00127560,-0.00284361,0.00137542,0.00245918,0.00318451,0.00222173\\-0.
 00165989,-0.00188763,-0.00044207,0.00097518,0.00103014,0.00056967,0.00
 199824,0.00313307,-0.00079346,0.00028474,0.00005855,-0.00017383,-0.001
 59828,-0.00233413,0.00083970\\\@


 ABOVE ALL I AM AN OPTIMIST FOR NUMBER THEORY,
 AND I HOLD THE HOPE THAT WE MAY NOT BE FAR FROM
 A TIME WHEN IRREFUTABLE ARITHMETIC WILL CELEBRATE
 ITS TRIUMPHS IN PHYSICS AND CHEMISTRY.
   -- HERMANN MINKOWSKI, 1905
 Job cpu time:  0 days  0 hours  1 minutes 51.8 seconds.
 File lengths (MBytes):  RWF=      9 Int=      0 D2E=      0 Chk=      1 Scr=      1
 Normal termination of Gaussian 09 at Tue Apr 29 14:50:58 2014.
************
total 320
drwxrwxr-x 2 henon henon   4096 29 avril 14:50 .
drwxrwxr-x 3 henon henon   4096 29 avril 14:50 ..
-rw-r--r-- 1 henon henon    377 29 avril 14:50 3Rfreq.inp
-rw-rw-r-- 1 henon henon 311982 29 avril 14:50 3Rfreq.out
Run on 12 cores
romeo158
************
