 Entering Gaussian System, Link 0=g09
 Initial command:
 /apps/gaussian/g09/l1.exe /scratch_l/henon/9Rfreq_29378/Gau-29394.inp -scrdir=/scratch_l/henon/9Rfreq_29378/
 Entering Link 1 = /apps/gaussian/g09/l1.exe PID=     29395.
  
 Copyright (c) 1988,1990,1992,1993,1995,1998,2003,2009, Gaussian, Inc.
                  All Rights Reserved.
  
 This is part of the Gaussian(R) 09 program.  It is based on
 the Gaussian(R) 03 system (copyright 2003, Gaussian, Inc.),
 the Gaussian(R) 98 system (copyright 1998, Gaussian, Inc.),
 the Gaussian(R) 94 system (copyright 1995, Gaussian, Inc.),
 the Gaussian 92(TM) system (copyright 1992, Gaussian, Inc.),
 the Gaussian 90(TM) system (copyright 1990, Gaussian, Inc.),
 the Gaussian 88(TM) system (copyright 1988, Gaussian, Inc.),
 the Gaussian 86(TM) system (copyright 1986, Carnegie Mellon
 University), and the Gaussian 82(TM) system (copyright 1983,
 Carnegie Mellon University). Gaussian is a federally registered
 trademark of Gaussian, Inc.
  
 This software contains proprietary and confidential information,
 including trade secrets, belonging to Gaussian, Inc.
  
 This software is provided under written license and may be
 used, copied, transmitted, or stored only in accord with that
 written license.
  
 The following legend is applicable only to US Government
 contracts under FAR:
  
                    RESTRICTED RIGHTS LEGEND
  
 Use, reproduction and disclosure by the US Government is
 subject to restrictions as set forth in subparagraphs (a)
 and (c) of the Commercial Computer Software - Restricted
 Rights clause in FAR 52.227-19.
  
 Gaussian, Inc.
 340 Quinnipiac St., Bldg. 40, Wallingford CT 06492
  
  
 ---------------------------------------------------------------
 Warning -- This program may not be used in any manner that
 competes with the business of Gaussian, Inc. or will provide
 assistance to any competitor of Gaussian, Inc.  The licensee
 of this program is prohibited from giving any competitor of
 Gaussian, Inc. access to this program.  By using this program,
 the user acknowledges that Gaussian, Inc. is engaged in the
 business of creating and licensing software in the field of
 computational chemistry and represents and warrants to the
 licensee that it is not a competitor of Gaussian, Inc. and that
 it will not use this program in any manner prohibited above.
 ---------------------------------------------------------------
  

 Cite this work as:
 Gaussian 09, Revision A.02,
 M. J. Frisch, G. W. Trucks, H. B. Schlegel, G. E. Scuseria, 
 M. A. Robb, J. R. Cheeseman, G. Scalmani, V. Barone, B. Mennucci, 
 G. A. Petersson, H. Nakatsuji, M. Caricato, X. Li, H. P. Hratchian, 
 A. F. Izmaylov, J. Bloino, G. Zheng, J. L. Sonnenberg, M. Hada, 
 M. Ehara, K. Toyota, R. Fukuda, J. Hasegawa, M. Ishida, T. Nakajima, 
 Y. Honda, O. Kitao, H. Nakai, T. Vreven, J. A. Montgomery, Jr., 
 J. E. Peralta, F. Ogliaro, M. Bearpark, J. J. Heyd, E. Brothers, 
 K. N. Kudin, V. N. Staroverov, R. Kobayashi, J. Normand, 
 K. Raghavachari, A. Rendell, J. C. Burant, S. S. Iyengar, J. Tomasi, 
 M. Cossi, N. Rega, J. M. Millam, M. Klene, J. E. Knox, J. B. Cross, 
 V. Bakken, C. Adamo, J. Jaramillo, R. Gomperts, R. E. Stratmann, 
 O. Yazyev, A. J. Austin, R. Cammi, C. Pomelli, J. W. Ochterski, 
 R. L. Martin, K. Morokuma, V. G. Zakrzewski, G. A. Voth, 
 P. Salvador, J. J. Dannenberg, S. Dapprich, A. D. Daniels, 
 O. Farkas, J. B. Foresman, J. V. Ortiz, J. Cioslowski, 
 and D. J. Fox, Gaussian, Inc., Wallingford CT, 2009.
 
 ******************************************
 Gaussian 09:  AM64L-G09RevA.02 11-Jun-2009
                29-Apr-2014 
 ******************************************
 %NPROC=12
 Will use up to   12 processors via shared memory.
 %MEM=500MB
 --------------------------------------------------
 #P M06 6-311G** FREQ # GFINPUT IOP(6/7=3) POP=FULL
 --------------------------------------------------
 1/10=4,30=1,38=1/1,3;
 2/12=2,17=6,18=5,40=1/2;
 3/5=4,6=6,7=101,11=2,16=1,24=10,25=1,30=1,71=2,74=-54/1,2,3;
 4//1;
 5/5=2,38=5,98=1/2;
 8/6=4,10=90,11=11/1;
 11/6=1,8=1,9=11,15=111,16=1/1,2,10;
 10/6=1/2;
 6/7=3,18=1,28=1/1;
 7/8=1,10=1,25=1/1,2,3,16;
 1/10=4,30=1/3;
 99//99;
 Leave Link    1 at Tue Apr 29 14:53:48 2014, MaxMem=   65536000 cpu:       0.3
 (Enter /apps/gaussian/g09/l101.exe)
 ---------------------
 RC, from TS reverse 9
 ---------------------
 Symbolic Z-matrix:
 Charge =  0 Multiplicity = 2
 7                    -0.10201  -0.05652   0.09682 
 7                    -0.23888  -0.02669   1.21801 
 7                     0.28062  -0.02254  -1.07561 
 1                    -0.50518  -0.0224   -1.72442 
 1                     1.34256   1.49173  -1.59929 
 
 NAtoms=      5 NQM=      5 NQMF=      0 NMic=      0 NMicF=      0 NTot=      5.
                    Isotopes and Nuclear Properties:
 (Nuclear quadrupole moments (NQMom) in fm**2, nuclear magnetic moments (NMagM)
  in nuclear magnetons)

  Atom         1           2           3           4           5
 IAtWgt=          14          14          14           1           1
 AtmWgt=  14.0030740  14.0030740  14.0030740   1.0078250   1.0078250
 NucSpn=           2           2           2           1           1
 AtZEff=   0.0000000   0.0000000   0.0000000   0.0000000   0.0000000
 NQMom=    2.0440000   2.0440000   2.0440000   0.0000000   0.0000000
 NMagM=    0.4037610   0.4037610   0.4037610   2.7928460   2.7928460
 Leave Link  101 at Tue Apr 29 14:53:48 2014, MaxMem=   65536000 cpu:       0.5
 (Enter /apps/gaussian/g09/l103.exe)

 GradGradGradGradGradGradGradGradGradGradGradGradGradGradGradGradGradGrad
 Berny optimization.
 Initialization pass.
 Trust Radius=3.00D-01 FncErr=1.00D-07 GrdErr=1.00D-07
 Number of steps in this run=   2 maximum allowed number of steps=   2.
 GradGradGradGradGradGradGradGradGradGradGradGradGradGradGradGradGradGrad

 Leave Link  103 at Tue Apr 29 14:53:48 2014, MaxMem=   65536000 cpu:       0.1
 (Enter /apps/gaussian/g09/l202.exe)
                          Input orientation:                          
 ---------------------------------------------------------------------
 Center     Atomic      Atomic             Coordinates (Angstroms)
 Number     Number       Type             X           Y           Z
 ---------------------------------------------------------------------
      1          7           0       -0.102009   -0.056523    0.096817
      2          7           0       -0.238877   -0.026690    1.218010
      3          7           0        0.280619   -0.022536   -1.075615
      4          1           0       -0.505180   -0.022396   -1.724419
      5          1           0        1.342562    1.491725   -1.599285
 ---------------------------------------------------------------------
                    Distance matrix (angstroms):
                    1          2          3          4          5
     1  N    0.000000
     2  N    1.129910   0.000000
     3  N    1.233757   2.351725   0.000000
     4  H    1.865640   2.954458   1.019032   0.000000
     5  H    2.713046   3.569830   1.922223   2.392148   0.000000
 Stoichiometry    H2N3(2)
 Framework group  C1[X(H2N3)]
 Deg. of freedom     9
 Full point group                 C1      NOp   1
 Largest Abelian subgroup         C1      NOp   1
 Largest concise Abelian subgroup C1      NOp   1
                         Standard orientation:                         
 ---------------------------------------------------------------------
 Center     Atomic      Atomic             Coordinates (Angstroms)
 Number     Number       Type             X           Y           Z
 ---------------------------------------------------------------------
      1          7           0        0.202016   -0.098413    0.010260
      2          7           0        1.310878    0.118495    0.018754
      3          7           0       -1.023717   -0.123935   -0.127884
      4          1           0       -1.456541   -0.793917    0.506319
      5          1           0       -1.967700    1.520891    0.185774
 ---------------------------------------------------------------------
 Rotational constants (GHZ):    129.4042192     11.0613218     10.3944560
 Leave Link  202 at Tue Apr 29 14:53:48 2014, MaxMem=   65536000 cpu:       0.0
 (Enter /apps/gaussian/g09/l301.exe)
 Standard basis: 6-311G(d,p) (5D, 7F)
 Ernie: Thresh=  0.10000D-02 Tol=  0.10000D-05 Strict=F.
 AO basis set in the form of general basis input (Overlap normalization):
      1 0
 S   6 1.00       0.000000000000
      0.6293480000D+04  0.1969788147D-02
      0.9490440000D+03  0.1496128592D-01
      0.2187760000D+03  0.7350053084D-01
      0.6369160000D+02  0.2489367658D+00
      0.1882820000D+02  0.6024594331D+00
      0.2720230000D+01  0.2562017589D+00
 SP   3 1.00       0.000000000000
      0.3063310000D+02  0.1119060795D+00  0.3831191864D-01
      0.7026140000D+01  0.9216666549D+00  0.2374031155D+00
      0.2112050000D+01 -0.2569191826D-02  0.8175923978D+00
 SP   1 1.00       0.000000000000
      0.6840090000D+00  0.1000000000D+01  0.1000000000D+01
 SP   1 1.00       0.000000000000
      0.2008780000D+00  0.1000000000D+01  0.1000000000D+01
 D   1 1.00       0.000000000000
      0.9130000000D+00  0.1000000000D+01
 ****
      2 0
 S   6 1.00       0.000000000000
      0.6293480000D+04  0.1969788147D-02
      0.9490440000D+03  0.1496128592D-01
      0.2187760000D+03  0.7350053084D-01
      0.6369160000D+02  0.2489367658D+00
      0.1882820000D+02  0.6024594331D+00
      0.2720230000D+01  0.2562017589D+00
 SP   3 1.00       0.000000000000
      0.3063310000D+02  0.1119060795D+00  0.3831191864D-01
      0.7026140000D+01  0.9216666549D+00  0.2374031155D+00
      0.2112050000D+01 -0.2569191826D-02  0.8175923978D+00
 SP   1 1.00       0.000000000000
      0.6840090000D+00  0.1000000000D+01  0.1000000000D+01
 SP   1 1.00       0.000000000000
      0.2008780000D+00  0.1000000000D+01  0.1000000000D+01
 D   1 1.00       0.000000000000
      0.9130000000D+00  0.1000000000D+01
 ****
      3 0
 S   6 1.00       0.000000000000
      0.6293480000D+04  0.1969788147D-02
      0.9490440000D+03  0.1496128592D-01
      0.2187760000D+03  0.7350053084D-01
      0.6369160000D+02  0.2489367658D+00
      0.1882820000D+02  0.6024594331D+00
      0.2720230000D+01  0.2562017589D+00
 SP   3 1.00       0.000000000000
      0.3063310000D+02  0.1119060795D+00  0.3831191864D-01
      0.7026140000D+01  0.9216666549D+00  0.2374031155D+00
      0.2112050000D+01 -0.2569191826D-02  0.8175923978D+00
 SP   1 1.00       0.000000000000
      0.6840090000D+00  0.1000000000D+01  0.1000000000D+01
 SP   1 1.00       0.000000000000
      0.2008780000D+00  0.1000000000D+01  0.1000000000D+01
 D   1 1.00       0.000000000000
      0.9130000000D+00  0.1000000000D+01
 ****
      4 0
 S   3 1.00       0.000000000000
      0.3386500000D+02  0.2549381454D-01
      0.5094790000D+01  0.1903731086D+00
      0.1158790000D+01  0.8521614860D+00
 S   1 1.00       0.000000000000
      0.3258400000D+00  0.1000000000D+01
 S   1 1.00       0.000000000000
      0.1027410000D+00  0.1000000000D+01
 P   1 1.00       0.000000000000
      0.7500000000D+00  0.1000000000D+01
 ****
      5 0
 S   3 1.00       0.000000000000
      0.3386500000D+02  0.2549381454D-01
      0.5094790000D+01  0.1903731086D+00
      0.1158790000D+01  0.8521614860D+00
 S   1 1.00       0.000000000000
      0.3258400000D+00  0.1000000000D+01
 S   1 1.00       0.000000000000
      0.1027410000D+00  0.1000000000D+01
 P   1 1.00       0.000000000000
      0.7500000000D+00  0.1000000000D+01
 ****

 There are    66 symmetry adapted basis functions of A   symmetry.
 Integral buffers will be    131072 words long.
 Raffenetti 2 integral format.
 Two-electron integral symmetry is turned on.
    66 basis functions,   112 primitive gaussians,    69 cartesian basis functions
    12 alpha electrons       11 beta electrons
       nuclear repulsion energy        66.4167302520 Hartrees.
 IExCor= 4235 DFT=T Ex+Corr=M06 ExCW=0 ScaHFX=  0.270000
 ScaDFX=  1.000000  1.000000  1.000000  1.000000 ScalE2=  1.000000  1.000000
 IRadAn=      0 IRanWt=     -1 IRanGd=            0 ICorTp=0
 NAtoms=    5 NActive=    5 NUniq=    5 SFac= 7.50D-01 NAtFMM=   80 NAOKFM=F Big=F
 Leave Link  301 at Tue Apr 29 14:53:48 2014, MaxMem=   65536000 cpu:       0.3
 (Enter /apps/gaussian/g09/l302.exe)
 NPDir=0 NMtPBC=     1 NCelOv=     1 NCel=       1 NClECP=     1 NCelD=      1
         NCelK=      1 NCelE2=     1 NClLst=     1 CellRange=     0.0.
 One-electron integrals computed using PRISM.
 NBasis=    66 RedAO= T  NBF=    66
 NBsUse=    66 1.00D-06 NBFU=    66
 Precomputing XC quadrature grid using
 IXCGrd= 2 IRadAn=           0 IRanWt=          -1 IRanGd=           0 AccXCQ= 1.00D-10.
 NRdTot=     311 NPtTot=       39598 NUsed=       41853 NTot=       41885
 NSgBfM=    69    69    69    69    69 NAtAll=     5     5.
 Leave Link  302 at Tue Apr 29 14:53:48 2014, MaxMem=   65536000 cpu:       2.4
 (Enter /apps/gaussian/g09/l303.exe)
 DipDrv:  MaxL=1.
 Leave Link  303 at Tue Apr 29 14:53:48 2014, MaxMem=   65536000 cpu:       0.2
 (Enter /apps/gaussian/g09/l401.exe)
 Harris functional with IExCor= 1009 diagonalized for initial guess.
 ExpMin= 1.03D-01 ExpMax= 6.29D+03 ExpMxC= 9.49D+02 IAcc=1 IRadAn=         1 AccDes= 0.00D+00
 HarFok:  IExCor= 1009 AccDes= 0.00D+00 IRadAn=         1 IDoV= 1
 ScaDFX=  1.000000  1.000000  1.000000  1.000000
 FoFCou: FMM=F IPFlag=           0 FMFlag=      100000 FMFlg1=           0
         NFxFlg=           0 DoJE=T BraDBF=F KetDBF=T FulRan=T
         Omega=  0.000000  0.000000  1.000000  0.000000  0.000000 ICntrl=     500 IOpCl=  0
         NMat0=    1 NMatS0=    1 NMatT0=    0 NMatD0=    1 NMtDS0=    0 NMtDT0=    0
         I1Cent=           4 NGrid=           0.
 Petite list used in FoFCou.
 Harris En= -165.163619729821    
 Initial guess orbital symmetries:
 Alpha Orbitals:
       Occupied  (A) (A) (A) (A) (A) (A) (A) (A) (A) (A) (A) (A)
       Virtual   (A) (A) (A) (A) (A) (A) (A) (A) (A) (A) (A) (A)
                 (A) (A) (A) (A) (A) (A) (A) (A) (A) (A) (A) (A)
                 (A) (A) (A) (A) (A) (A) (A) (A) (A) (A) (A) (A)
                 (A) (A) (A) (A) (A) (A) (A) (A) (A) (A) (A) (A)
                 (A) (A) (A) (A) (A) (A)
 Beta  Orbitals:
       Occupied  (A) (A) (A) (A) (A) (A) (A) (A) (A) (A) (A)
       Virtual   (A) (A) (A) (A) (A) (A) (A) (A) (A) (A) (A) (A)
                 (A) (A) (A) (A) (A) (A) (A) (A) (A) (A) (A) (A)
                 (A) (A) (A) (A) (A) (A) (A) (A) (A) (A) (A) (A)
                 (A) (A) (A) (A) (A) (A) (A) (A) (A) (A) (A) (A)
                 (A) (A) (A) (A) (A) (A) (A)
 The electronic state of the initial guess is 2-A.
 Initial guess <Sx>= 0.0000 <Sy>= 0.0000 <Sz>= 0.5000 <S**2>= 0.7500 S= 0.5000
 Leave Link  401 at Tue Apr 29 14:53:48 2014, MaxMem=   65536000 cpu:       1.6
 (Enter /apps/gaussian/g09/l502.exe)
 UHF open shell SCF:
 Requested convergence on RMS density matrix=1.00D-08 within 128 cycles.
 Requested convergence on MAX density matrix=1.00D-06.
 Requested convergence on             energy=1.00D-06.
 No special actions if energy rises.
 Using DIIS extrapolation, IDIIS=  1040.
 Integral symmetry usage will be decided dynamically.
        41795 words used for storage of precomputed grid.
 Keep R1 and R2 ints in memory in canonical form, NReq=6799368.
 IEnd=       75565 IEndB=       75565 NGot=    65536000 MDV=    59647238
 LenX=    59647238 LenY=    59642036
 Symmetry not used in FoFDir.
 MinBra= 0 MaxBra= 2 Meth= 1.
 IRaf=       0 NMat=   1 IRICut=       1 DoRegI=T DoRafI=F ISym2E= 0 JSym2E=0.
 Integral accuracy reduced to 1.0D-05 until final iterations.

 Cycle   1  Pass 0  IDiag  1:
 E= -165.178695755216    
 DIIS: error= 2.70D-02 at cycle   1 NSaved=   1.
 NSaved= 1 IEnMin= 1 EnMin= -165.178695755216     IErMin= 1 ErrMin= 2.70D-02
 ErrMax= 2.70D-02 EMaxC= 1.00D-01 BMatC= 2.22D-01 BMatP= 2.22D-01
 IDIUse=3 WtCom= 7.30D-01 WtEn= 2.70D-01
 Coeff-Com:  0.100D+01
 Coeff-En:   0.100D+01
 Coeff:      0.100D+01
 Gap=     0.190 Goal=   None    Shift=    0.000
 Gap=     0.201 Goal=   None    Shift=    0.000
 GapD=    0.190 DampG=1.000 DampE=0.500 DampFc=0.5000 IDamp=-1.
 Damping current iteration by 5.00D-01
 RMSDP=5.92D-03 MaxDP=1.33D-01              OVMax= 1.39D-01

 Cycle   2  Pass 0  IDiag  1:
 E= -165.192365194839     Delta-E=       -0.013669439623 Rises=F Damp=T
 DIIS: error= 8.76D-03 at cycle   2 NSaved=   2.
 NSaved= 2 IEnMin= 2 EnMin= -165.192365194839     IErMin= 2 ErrMin= 8.76D-03
 ErrMax= 8.76D-03 EMaxC= 1.00D-01 BMatC= 3.36D-02 BMatP= 2.22D-01
 IDIUse=3 WtCom= 9.12D-01 WtEn= 8.76D-02
 Coeff-Com:  0.215D+00 0.785D+00
 Coeff-En:   0.309D+00 0.691D+00
 Coeff:      0.223D+00 0.777D+00
 Gap=     0.197 Goal=   None    Shift=    0.000
 Gap=     0.226 Goal=   None    Shift=    0.000
 RMSDP=1.32D-03 MaxDP=2.17D-02 DE=-1.37D-02 OVMax= 9.01D-02

 Cycle   3  Pass 0  IDiag  1:
 E= -165.222636864025     Delta-E=       -0.030271669186 Rises=F Damp=F
 DIIS: error= 4.42D-03 at cycle   3 NSaved=   3.
 NSaved= 3 IEnMin= 3 EnMin= -165.222636864025     IErMin= 3 ErrMin= 4.42D-03
 ErrMax= 4.42D-03 EMaxC= 1.00D-01 BMatC= 6.83D-03 BMatP= 3.36D-02
 IDIUse=3 WtCom= 9.56D-01 WtEn= 4.42D-02
 Coeff-Com:  0.294D-01 0.288D+00 0.683D+00
 Coeff-En:   0.000D+00 0.000D+00 0.100D+01
 Coeff:      0.281D-01 0.275D+00 0.697D+00
 Gap=     0.196 Goal=   None    Shift=    0.000
 Gap=     0.240 Goal=   None    Shift=    0.000
 RMSDP=5.98D-04 MaxDP=9.87D-03 DE=-3.03D-02 OVMax= 2.47D-02

 Cycle   4  Pass 0  IDiag  1:
 E= -165.223411071607     Delta-E=       -0.000774207582 Rises=F Damp=F
 DIIS: error= 5.35D-03 at cycle   4 NSaved=   4.
 NSaved= 4 IEnMin= 4 EnMin= -165.223411071607     IErMin= 3 ErrMin= 4.42D-03
 ErrMax= 5.35D-03 EMaxC= 1.00D-01 BMatC= 4.41D-03 BMatP= 6.83D-03
 IDIUse=3 WtCom= 9.47D-01 WtEn= 5.35D-02
 Coeff-Com: -0.359D-02 0.956D-01 0.463D+00 0.445D+00
 Coeff-En:   0.000D+00 0.000D+00 0.322D+00 0.678D+00
 Coeff:     -0.340D-02 0.905D-01 0.455D+00 0.458D+00
 Gap=     0.197 Goal=   None    Shift=    0.000
 Gap=     0.240 Goal=   None    Shift=    0.000
 RMSDP=4.21D-04 MaxDP=5.00D-03 DE=-7.74D-04 OVMax= 1.84D-02

 Cycle   5  Pass 0  IDiag  1:
 E= -165.224061584599     Delta-E=       -0.000650512993 Rises=F Damp=F
 DIIS: error= 3.56D-03 at cycle   5 NSaved=   5.
 NSaved= 5 IEnMin= 5 EnMin= -165.224061584599     IErMin= 5 ErrMin= 3.56D-03
 ErrMax= 3.56D-03 EMaxC= 1.00D-01 BMatC= 1.49D-03 BMatP= 4.41D-03
 IDIUse=3 WtCom= 9.64D-01 WtEn= 3.56D-02
 Coeff-Com: -0.135D-01-0.214D-02 0.162D+00 0.370D+00 0.483D+00
 Coeff-En:   0.000D+00 0.000D+00 0.000D+00 0.278D+00 0.722D+00
 Coeff:     -0.130D-01-0.206D-02 0.157D+00 0.367D+00 0.492D+00
 Gap=     0.203 Goal=   None    Shift=    0.000
 Gap=     0.243 Goal=   None    Shift=    0.000
 RMSDP=2.71D-04 MaxDP=3.69D-03 DE=-6.51D-04 OVMax= 1.29D-02

 Cycle   6  Pass 0  IDiag  1:
 E= -165.224433715770     Delta-E=       -0.000372131170 Rises=F Damp=F
 DIIS: error= 8.10D-04 at cycle   6 NSaved=   6.
 NSaved= 6 IEnMin= 6 EnMin= -165.224433715770     IErMin= 6 ErrMin= 8.10D-04
 ErrMax= 8.10D-04 EMaxC= 1.00D-01 BMatC= 8.50D-05 BMatP= 1.49D-03
 IDIUse=3 WtCom= 9.92D-01 WtEn= 8.10D-03
 Coeff-Com: -0.674D-02-0.108D-01-0.792D-01-0.700D-01 0.135D+00 0.103D+01
 Coeff-En:   0.000D+00 0.000D+00 0.000D+00 0.000D+00 0.000D+00 0.100D+01
 Coeff:     -0.668D-02-0.107D-01-0.785D-01-0.694D-01 0.134D+00 0.103D+01
 Gap=     0.203 Goal=   None    Shift=    0.000
 Gap=     0.246 Goal=   None    Shift=    0.000
 RMSDP=1.12D-04 MaxDP=2.02D-03 DE=-3.72D-04 OVMax= 7.46D-03

 Cycle   7  Pass 0  IDiag  1:
 E= -165.224478402695     Delta-E=       -0.000044686925 Rises=F Damp=F
 DIIS: error= 1.50D-04 at cycle   7 NSaved=   7.
 NSaved= 7 IEnMin= 7 EnMin= -165.224478402695     IErMin= 7 ErrMin= 1.50D-04
 ErrMax= 1.50D-04 EMaxC= 1.00D-01 BMatC= 3.56D-06 BMatP= 8.50D-05
 IDIUse=3 WtCom= 9.98D-01 WtEn= 1.50D-03
 Coeff-Com:  0.571D-04 0.363D-03-0.203D-01-0.434D-01-0.467D-01 0.151D+00
 Coeff-Com:  0.959D+00
 Coeff-En:   0.000D+00 0.000D+00 0.000D+00 0.000D+00 0.000D+00 0.000D+00
 Coeff-En:   0.100D+01
 Coeff:      0.570D-04 0.362D-03-0.203D-01-0.434D-01-0.466D-01 0.151D+00
 Coeff:      0.959D+00
 Gap=     0.204 Goal=   None    Shift=    0.000
 Gap=     0.247 Goal=   None    Shift=    0.000
 RMSDP=3.84D-05 MaxDP=6.07D-04 DE=-4.47D-05 OVMax= 1.68D-03

 Cycle   8  Pass 0  IDiag  1:
 E= -165.224481005686     Delta-E=       -0.000002602991 Rises=F Damp=F
 DIIS: error= 3.68D-05 at cycle   8 NSaved=   8.
 NSaved= 8 IEnMin= 8 EnMin= -165.224481005686     IErMin= 8 ErrMin= 3.68D-05
 ErrMax= 3.68D-05 EMaxC= 1.00D-01 BMatC= 1.82D-07 BMatP= 3.56D-06
 IDIUse=1 WtCom= 1.00D+00 WtEn= 0.00D+00
 Coeff-Com:  0.287D-03 0.671D-03 0.631D-02 0.432D-02-0.491D-03-0.602D-01
 Coeff-Com: -0.979D-01 0.115D+01
 Coeff:      0.287D-03 0.671D-03 0.631D-02 0.432D-02-0.491D-03-0.602D-01
 Coeff:     -0.979D-01 0.115D+01
 Gap=     0.204 Goal=   None    Shift=    0.000
 Gap=     0.247 Goal=   None    Shift=    0.000
 RMSDP=9.65D-06 MaxDP=1.61D-04 DE=-2.60D-06 OVMax= 5.22D-04

 Initial convergence to 1.0D-05 achieved.  Increase integral accuracy.
 Cycle   9  Pass 1  IDiag  1:
 E= -165.224483562306     Delta-E=       -0.000002556619 Rises=F Damp=F
 DIIS: error= 2.19D-04 at cycle   1 NSaved=   1.
 NSaved= 1 IEnMin= 1 EnMin= -165.224483562306     IErMin= 1 ErrMin= 2.19D-04
 ErrMax= 2.19D-04 EMaxC= 1.00D-01 BMatC= 1.99D-05 BMatP= 1.99D-05
 IDIUse=3 WtCom= 9.98D-01 WtEn= 2.19D-03
 Coeff-Com:  0.100D+01
 Coeff-En:   0.100D+01
 Coeff:      0.100D+01
 Gap=     0.204 Goal=   None    Shift=    0.000
 Gap=     0.247 Goal=   None    Shift=    0.000
 RMSDP=9.65D-06 MaxDP=1.61D-04 DE=-2.56D-06 OVMax= 6.61D-04

 Cycle  10  Pass 1  IDiag  1:
 E= -165.224487412062     Delta-E=       -0.000003849757 Rises=F Damp=F
 DIIS: error= 1.45D-05 at cycle   2 NSaved=   2.
 NSaved= 2 IEnMin= 2 EnMin= -165.224487412062     IErMin= 2 ErrMin= 1.45D-05
 ErrMax= 1.45D-05 EMaxC= 1.00D-01 BMatC= 1.06D-07 BMatP= 1.99D-05
 IDIUse=1 WtCom= 1.00D+00 WtEn= 0.00D+00
 Coeff-Com:  0.906D-02 0.991D+00
 Coeff:      0.906D-02 0.991D+00
 Gap=     0.204 Goal=   None    Shift=    0.000
 Gap=     0.247 Goal=   None    Shift=    0.000
 RMSDP=5.66D-06 MaxDP=1.34D-04 DE=-3.85D-06 OVMax= 1.29D-04

 Cycle  11  Pass 1  IDiag  1:
 E= -165.224487436355     Delta-E=       -0.000000024293 Rises=F Damp=F
 DIIS: error= 1.73D-05 at cycle   3 NSaved=   3.
 NSaved= 3 IEnMin= 3 EnMin= -165.224487436355     IErMin= 2 ErrMin= 1.45D-05
 ErrMax= 1.73D-05 EMaxC= 1.00D-01 BMatC= 7.26D-08 BMatP= 1.06D-07
 IDIUse=1 WtCom= 1.00D+00 WtEn= 0.00D+00
 Coeff-Com: -0.127D-02 0.434D+00 0.567D+00
 Coeff:     -0.127D-02 0.434D+00 0.567D+00
 Gap=     0.204 Goal=   None    Shift=    0.000
 Gap=     0.247 Goal=   None    Shift=    0.000
 RMSDP=1.89D-06 MaxDP=3.34D-05 DE=-2.43D-08 OVMax= 6.17D-05

 Cycle  12  Pass 1  IDiag  1:
 E= -165.224487448600     Delta-E=       -0.000000012245 Rises=F Damp=F
 DIIS: error= 1.02D-05 at cycle   4 NSaved=   4.
 NSaved= 4 IEnMin= 4 EnMin= -165.224487448600     IErMin= 4 ErrMin= 1.02D-05
 ErrMax= 1.02D-05 EMaxC= 1.00D-01 BMatC= 2.45D-08 BMatP= 7.26D-08
 IDIUse=1 WtCom= 1.00D+00 WtEn= 0.00D+00
 Coeff-Com: -0.257D-02 0.274D-01 0.357D+00 0.618D+00
 Coeff:     -0.257D-02 0.274D-01 0.357D+00 0.618D+00
 Gap=     0.204 Goal=   None    Shift=    0.000
 Gap=     0.247 Goal=   None    Shift=    0.000
 RMSDP=9.70D-07 MaxDP=1.82D-05 DE=-1.22D-08 OVMax= 3.50D-05

 Cycle  13  Pass 1  IDiag  1:
 E= -165.224487453125     Delta-E=       -0.000000004525 Rises=F Damp=F
 DIIS: error= 5.99D-06 at cycle   5 NSaved=   5.
 NSaved= 5 IEnMin= 5 EnMin= -165.224487453125     IErMin= 5 ErrMin= 5.99D-06
 ErrMax= 5.99D-06 EMaxC= 1.00D-01 BMatC= 4.94D-09 BMatP= 2.45D-08
 IDIUse=1 WtCom= 1.00D+00 WtEn= 0.00D+00
 Coeff-Com: -0.163D-02-0.261D-01 0.158D+00 0.378D+00 0.491D+00
 Coeff:     -0.163D-02-0.261D-01 0.158D+00 0.378D+00 0.491D+00
 Gap=     0.204 Goal=   None    Shift=    0.000
 Gap=     0.247 Goal=   None    Shift=    0.000
 RMSDP=5.57D-07 MaxDP=8.59D-06 DE=-4.53D-09 OVMax= 2.86D-05

 Cycle  14  Pass 1  IDiag  1:
 E= -165.224487454209     Delta-E=       -0.000000001084 Rises=F Damp=F
 DIIS: error= 4.41D-06 at cycle   6 NSaved=   6.
 NSaved= 6 IEnMin= 6 EnMin= -165.224487454209     IErMin= 6 ErrMin= 4.41D-06
 ErrMax= 4.41D-06 EMaxC= 1.00D-01 BMatC= 2.47D-09 BMatP= 4.94D-09
 IDIUse=1 WtCom= 1.00D+00 WtEn= 0.00D+00
 Coeff-Com: -0.527D-03-0.262D-01 0.387D-01 0.124D+00 0.393D+00 0.471D+00
 Coeff:     -0.527D-03-0.262D-01 0.387D-01 0.124D+00 0.393D+00 0.471D+00
 Gap=     0.204 Goal=   None    Shift=    0.000
 Gap=     0.247 Goal=   None    Shift=    0.000
 RMSDP=3.49D-07 MaxDP=5.03D-06 DE=-1.08D-09 OVMax= 1.81D-05

 Cycle  15  Pass 1  IDiag  1:
 E= -165.224487454965     Delta-E=       -0.000000000756 Rises=F Damp=F
 DIIS: error= 1.58D-06 at cycle   7 NSaved=   7.
 NSaved= 7 IEnMin= 7 EnMin= -165.224487454965     IErMin= 7 ErrMin= 1.58D-06
 ErrMax= 1.58D-06 EMaxC= 1.00D-01 BMatC= 3.16D-10 BMatP= 2.47D-09
 IDIUse=1 WtCom= 1.00D+00 WtEn= 0.00D+00
 Coeff-Com:  0.653D-03-0.582D-02-0.694D-01-0.159D+00-0.632D-01 0.217D+00
 Coeff-Com:  0.108D+01
 Coeff:      0.653D-03-0.582D-02-0.694D-01-0.159D+00-0.632D-01 0.217D+00
 Coeff:      0.108D+01
 Gap=     0.204 Goal=   None    Shift=    0.000
 Gap=     0.247 Goal=   None    Shift=    0.000
 RMSDP=3.71D-07 MaxDP=5.49D-06 DE=-7.56D-10 OVMax= 1.71D-05

 Cycle  16  Pass 1  IDiag  1:
 E= -165.224487455271     Delta-E=       -0.000000000306 Rises=F Damp=F
 DIIS: error= 4.65D-07 at cycle   8 NSaved=   8.
 NSaved= 8 IEnMin= 8 EnMin= -165.224487455271     IErMin= 8 ErrMin= 4.65D-07
 ErrMax= 4.65D-07 EMaxC= 1.00D-01 BMatC= 2.36D-11 BMatP= 3.16D-10
 IDIUse=1 WtCom= 1.00D+00 WtEn= 0.00D+00
 Coeff-Com:  0.177D-03 0.461D-02-0.110D-01-0.381D-01-0.625D-01-0.742D-01
 Coeff-Com:  0.112D+00 0.107D+01
 Coeff:      0.177D-03 0.461D-02-0.110D-01-0.381D-01-0.625D-01-0.742D-01
 Coeff:      0.112D+00 0.107D+01
 Gap=     0.204 Goal=   None    Shift=    0.000
 Gap=     0.247 Goal=   None    Shift=    0.000
 RMSDP=1.32D-07 MaxDP=1.95D-06 DE=-3.06D-10 OVMax= 5.91D-06

 Cycle  17  Pass 1  IDiag  1:
 E= -165.224487455307     Delta-E=       -0.000000000035 Rises=F Damp=F
 DIIS: error= 2.37D-07 at cycle   9 NSaved=   9.
 NSaved= 9 IEnMin= 9 EnMin= -165.224487455307     IErMin= 9 ErrMin= 2.37D-07
 ErrMax= 2.37D-07 EMaxC= 1.00D-01 BMatC= 3.37D-12 BMatP= 2.36D-11
 IDIUse=1 WtCom= 1.00D+00 WtEn= 0.00D+00
 Coeff-Com: -0.101D-03-0.111D-03 0.921D-02 0.240D-01 0.817D-02-0.695D-02
 Coeff-Com: -0.144D+00-0.133D+00 0.124D+01
 Coeff:     -0.101D-03-0.111D-03 0.921D-02 0.240D-01 0.817D-02-0.695D-02
 Coeff:     -0.144D+00-0.133D+00 0.124D+01
 Gap=     0.204 Goal=   None    Shift=    0.000
 Gap=     0.247 Goal=   None    Shift=    0.000
 RMSDP=4.58D-08 MaxDP=5.45D-07 DE=-3.54D-11 OVMax= 2.07D-06

 Cycle  18  Pass 1  IDiag  1:
 E= -165.224487455311     Delta-E=       -0.000000000004 Rises=F Damp=F
 DIIS: error= 8.25D-08 at cycle  10 NSaved=  10.
 NSaved=10 IEnMin=10 EnMin= -165.224487455311     IErMin=10 ErrMin= 8.25D-08
 ErrMax= 8.25D-08 EMaxC= 1.00D-01 BMatC= 4.78D-13 BMatP= 3.37D-12
 IDIUse=1 WtCom= 1.00D+00 WtEn= 0.00D+00
 Coeff-Com: -0.121D-04-0.626D-03 0.519D-03 0.255D-02 0.706D-02 0.113D-01
 Coeff-Com:  0.182D-01-0.176D+00-0.258D+00 0.140D+01
 Coeff:     -0.121D-04-0.626D-03 0.519D-03 0.255D-02 0.706D-02 0.113D-01
 Coeff:      0.182D-01-0.176D+00-0.258D+00 0.140D+01
 Gap=     0.204 Goal=   None    Shift=    0.000
 Gap=     0.247 Goal=   None    Shift=    0.000
 RMSDP=2.26D-08 MaxDP=3.43D-07 DE=-4.23D-12 OVMax= 1.03D-06

 Cycle  19  Pass 1  IDiag  1:
 E= -165.224487455312     Delta-E=       -0.000000000001 Rises=F Damp=F
 DIIS: error= 2.40D-08 at cycle  11 NSaved=  11.
 NSaved=11 IEnMin=11 EnMin= -165.224487455312     IErMin=11 ErrMin= 2.40D-08
 ErrMax= 2.40D-08 EMaxC= 1.00D-01 BMatC= 3.43D-14 BMatP= 4.78D-13
 IDIUse=1 WtCom= 1.00D+00 WtEn= 0.00D+00
 Coeff-Com:  0.743D-05 0.470D-04-0.789D-03-0.238D-02-0.498D-03-0.909D-03
 Coeff-Com:  0.101D-01 0.264D-01-0.696D-01-0.151D+00 0.119D+01
 Coeff:      0.743D-05 0.470D-04-0.789D-03-0.238D-02-0.498D-03-0.909D-03
 Coeff:      0.101D-01 0.264D-01-0.696D-01-0.151D+00 0.119D+01
 Gap=     0.204 Goal=   None    Shift=    0.000
 Gap=     0.247 Goal=   None    Shift=    0.000
 RMSDP=4.76D-09 MaxDP=7.78D-08 DE=-9.38D-13 OVMax= 2.54D-07

 SCF Done:  E(UM06) =  -165.224487455     A.U. after   19 cycles
             Convg  =    0.4764D-08             -V/T =  2.0019
 <Sx>= 0.0000 <Sy>= 0.0000 <Sz>= 0.5000 <S**2>= 0.7552 S= 0.5026
 <L.S>=  0.00000000000    
 KE= 1.649126467068D+02 PE=-5.192910350880D+02 EE= 1.227371706739D+02
 Annihilation of the first spin contaminant:
 S**2 before annihilation     0.7552,   after     0.7500
 Leave Link  502 at Tue Apr 29 14:53:50 2014, MaxMem=   65536000 cpu:      16.5
 (Enter /apps/gaussian/g09/l801.exe)
 Range of M.O.s used for correlation:     1    66
 NBasis=    66 NAE=    12 NBE=    11 NFC=     0 NFV=     0
 NROrb=     66 NOA=    12 NOB=    11 NVA=    54 NVB=    55

 **** Warning!!: The largest alpha MO coefficient is  0.10821408D+02


 **** Warning!!: The largest beta MO coefficient is  0.10921775D+02

 Leave Link  801 at Tue Apr 29 14:53:50 2014, MaxMem=   65536000 cpu:       0.1
 (Enter /apps/gaussian/g09/l1101.exe)
 Using compressed storage, NAtomX=     5.
 Will process   6 centers per pass.
 Leave Link 1101 at Tue Apr 29 14:53:50 2014, MaxMem=   65536000 cpu:       1.4
 (Enter /apps/gaussian/g09/l1102.exe)
 Symmetrizing basis deriv contribution to polar:
 IMax=3 JMax=2 DiffMx= 0.00D+00
 Leave Link 1102 at Tue Apr 29 14:53:50 2014, MaxMem=   65536000 cpu:       0.2
 (Enter /apps/gaussian/g09/l1110.exe)
 Forming Gx(P) for the SCF density, NAtomX=     5.
 Integral derivatives from FoFDir/FoFCou, PRISM(SPDF).
 Do as many integral derivatives as possible in FoFDir.
 G2DrvN: MDV=      65535856.
 G2DrvN: will do     6 centers at a time, making    1 passes doing MaxLOS=2.
 Calling FoFCou, ICntrl=  3107 FMM=F I1Cent=   0 AccDes= 0.00D+00.
 FoFCou: FMM=F IPFlag=           0 FMFlag=      100000 FMFlg1=           0
         NFxFlg=           0 DoJE=F BraDBF=F KetDBF=F FulRan=T
         Omega=  0.000000  0.000000  1.000000  0.000000  0.000000 ICntrl=    3107 IOpCl=  1
         NMat0=    1 NMatS0=    1 NMatT0=    0 NMatD0=    1 NMtDS0=    0 NMtDT0=    0
         I1Cent=           0 NGrid=           0.
 Symmetry not used in FoFCou.
 FoFDir/FoFCou used for L=0 through L=2.
 End of G2Drv Frequency-dependent properties file   721 does not exist.
 End of G2Drv Frequency-dependent properties file   722 does not exist.
 Leave Link 1110 at Tue Apr 29 14:53:52 2014, MaxMem=   65536000 cpu:      16.5
 (Enter /apps/gaussian/g09/l1002.exe)
 Minotr:  UHF open shell wavefunction.
          IDoAtm=11111
          Direct CPHF calculation.
          Differentiating once with respect to electric field.
                with respect to dipole field.
          Differentiating once with respect to nuclear coordinates.
          Requested convergence is 1.0D-08 RMS, and 1.0D-07 maximum.
          Secondary convergence is 1.0D-12 RMS, and 1.0D-12 maximum.
          NewPWx=T KeepS1=F KeepF1=F KeepIn=T MapXYZ=F SortEE=F KeepMc=T.
          MDV=      65535946 using IRadAn=       2.
 Generate precomputed XC quadrature information.
          Keep R1 and R2 ints in memory in canonical form, NReq=6656460.
 Symmetry not used in FoFDir.
 MinBra= 0 MaxBra= 2 Meth= 1.
 IRaf=       0 NMat=   1 IRICut=       1 DoRegI=T DoRafI=F ISym2E= 0 JSym2E=0.
          Solving linear equations simultaneously, MaxMat=       0.
          There are    18 degrees of freedom in the 1st order CPHF.  IDoFFX=5.
     15 vectors produced by pass  0 Test12= 6.96D-15 5.56D-09 XBig12= 1.51D+02 5.06D+00.
 AX will form    15 AO Fock derivatives at one time.
     15 vectors produced by pass  1 Test12= 6.96D-15 5.56D-09 XBig12= 6.60D+01 1.40D+00.
     15 vectors produced by pass  2 Test12= 6.96D-15 5.56D-09 XBig12= 1.01D+00 1.99D-01.
     15 vectors produced by pass  3 Test12= 6.96D-15 5.56D-09 XBig12= 1.62D-02 3.34D-02.
     15 vectors produced by pass  4 Test12= 6.96D-15 5.56D-09 XBig12= 2.64D-04 3.51D-03.
     15 vectors produced by pass  5 Test12= 6.96D-15 5.56D-09 XBig12= 2.28D-06 3.57D-04.
     12 vectors produced by pass  6 Test12= 6.96D-15 5.56D-09 XBig12= 1.40D-08 1.90D-05.
      6 vectors produced by pass  7 Test12= 6.96D-15 5.56D-09 XBig12= 4.44D-11 9.54D-07.
      3 vectors produced by pass  8 Test12= 6.96D-15 5.56D-09 XBig12= 1.22D-13 5.21D-08.
 Inverted reduced A of dimension   111 with in-core refinement.
 FullF1:  Do perturbations    1 to     3.
 Isotropic polarizability for W=    0.000000       25.97 Bohr**3.
 End of Minotr Frequency-dependent properties file   721 does not exist.
 End of Minotr Frequency-dependent properties file   722 does not exist.
 Leave Link 1002 at Tue Apr 29 14:53:54 2014, MaxMem=   65536000 cpu:      25.0
 (Enter /apps/gaussian/g09/l601.exe)
 Copying SCF densities to generalized density rwf, IOpCl= 1 IROHF=0.

 **********************************************************************

            Population analysis using the SCF density.

 **********************************************************************

 Orbital symmetries:
 Alpha Orbitals:
       Occupied  (A) (A) (A) (A) (A) (A) (A) (A) (A) (A) (A) (A)
       Virtual   (A) (A) (A) (A) (A) (A) (A) (A) (A) (A) (A) (A)
                 (A) (A) (A) (A) (A) (A) (A) (A) (A) (A) (A) (A)
                 (A) (A) (A) (A) (A) (A) (A) (A) (A) (A) (A) (A)
                 (A) (A) (A) (A) (A) (A) (A) (A) (A) (A) (A) (A)
                 (A) (A) (A) (A) (A) (A)
 Beta  Orbitals:
       Occupied  (A) (A) (A) (A) (A) (A) (A) (A) (A) (A) (A)
       Virtual   (A) (A) (A) (A) (A) (A) (A) (A) (A) (A) (A) (A)
                 (A) (A) (A) (A) (A) (A) (A) (A) (A) (A) (A) (A)
                 (A) (A) (A) (A) (A) (A) (A) (A) (A) (A) (A) (A)
                 (A) (A) (A) (A) (A) (A) (A) (A) (A) (A) (A) (A)
                 (A) (A) (A) (A) (A) (A) (A)
 The electronic state is 2-A.
 Alpha  occ. eigenvalues --  -14.57312 -14.47144 -14.44889  -1.17698  -1.00905
 Alpha  occ. eigenvalues --   -0.65200  -0.55510  -0.54660  -0.47992  -0.37738
 Alpha  occ. eigenvalues --   -0.32019  -0.23920
 Alpha virt. eigenvalues --   -0.03541   0.00939   0.03801   0.22754   0.25722
 Alpha virt. eigenvalues --    0.36798   0.42059   0.45515   0.50189   0.52628
 Alpha virt. eigenvalues --    0.60543   0.64452   0.67510   0.69002   0.74054
 Alpha virt. eigenvalues --    0.76777   0.92911   1.02952   1.11527   1.22245
 Alpha virt. eigenvalues --    1.34296   1.37386   1.46325   1.49118   1.64319
 Alpha virt. eigenvalues --    1.65443   1.70082   1.77380   1.84867   2.07827
 Alpha virt. eigenvalues --    2.10406   2.18272   2.24299   2.33291   2.39168
 Alpha virt. eigenvalues --    2.41834   2.47146   2.66574   2.85282   3.02357
 Alpha virt. eigenvalues --    3.18712   3.49789   3.51300   3.63151   3.88318
 Alpha virt. eigenvalues --    3.90410   3.91082   4.09067   4.28015   4.37312
 Alpha virt. eigenvalues --    5.02601  34.96321  35.47466  36.18767
  Beta  occ. eigenvalues --  -14.57307 -14.46959 -14.44759  -1.17375  -1.00553
  Beta  occ. eigenvalues --   -0.65073  -0.54744  -0.54542  -0.47438  -0.35907
  Beta  occ. eigenvalues --   -0.30855
  Beta virt. eigenvalues --   -0.06106  -0.02499   0.02055   0.04981   0.23144
  Beta virt. eigenvalues --    0.36593   0.40522   0.41892   0.45760   0.50205
  Beta virt. eigenvalues --    0.53740   0.60703   0.65039   0.67772   0.69024
  Beta virt. eigenvalues --    0.74436   0.77487   0.93335   1.03714   1.12055
  Beta virt. eigenvalues --    1.23052   1.41005   1.45735   1.47585   1.51172
  Beta virt. eigenvalues --    1.64835   1.66053   1.70581   1.83346   1.86795
  Beta virt. eigenvalues --    2.08326   2.11018   2.21016   2.25513   2.37982
  Beta virt. eigenvalues --    2.39518   2.47245   2.65932   2.70819   2.85263
  Beta virt. eigenvalues --    3.02798   3.18913   3.49658   3.51469   3.63388
  Beta virt. eigenvalues --    3.88217   3.90733   3.91593   4.08979   4.27885
  Beta virt. eigenvalues --    4.37372   5.02556  34.96507  35.47664  36.18931
     Alpha Molecular Orbital Coefficients:
                           1         2         3         4         5
                           O         O         O         O         O
     Eigenvalues --   -14.57312 -14.47144 -14.44889  -1.17698  -1.00905
   1 1   N  1S          0.55747  -0.00324  -0.00110  -0.10563  -0.00657
   2        2S          0.46460  -0.00205  -0.00064  -0.16383  -0.01071
   3        2PX        -0.00022   0.00104  -0.00078   0.03245  -0.17997
   4        2PY         0.00017   0.00017  -0.00003   0.01325  -0.02234
   5        2PZ        -0.00016   0.00002  -0.00007  -0.00346  -0.00751
   6        3S          0.01842  -0.00286  -0.00093   0.46510   0.03595
   7        3PX         0.00235  -0.00581   0.00291   0.03238  -0.23787
   8        3PY         0.00081  -0.00103   0.00011   0.01562  -0.02896
   9        3PZ        -0.00016  -0.00009   0.00027  -0.00486  -0.00999
  10        4S         -0.00325   0.00348   0.00186   0.21156   0.02780
  11        4PX         0.00047   0.00795  -0.00825  -0.00546  -0.06965
  12        4PY        -0.00012   0.00104  -0.00050   0.00240  -0.01149
  13        4PZ         0.00008   0.00035  -0.00042  -0.00134  -0.00162
  14        5D 0       -0.00241   0.00138   0.00071  -0.01206  -0.00129
  15        5D+1        0.00040  -0.00001  -0.00036   0.00189   0.00125
  16        5D-1        0.00004  -0.00001   0.00001  -0.00069  -0.00015
  17        5D+2        0.00403  -0.00220  -0.00130   0.01972   0.00271
  18        5D-2        0.00104  -0.00094   0.00001   0.00528  -0.00172
  19 2   N  1S          0.00301   0.55744   0.00046  -0.06744   0.06514
  20        2S          0.00329   0.46513   0.00040  -0.10376   0.10147
  21        2PX        -0.00079  -0.00179  -0.00008  -0.08210   0.06914
  22        2PY        -0.00018  -0.00037   0.00003  -0.01558   0.01545
  23        2PZ         0.00001  -0.00001  -0.00003  -0.00097  -0.00028
  24        3S         -0.00324   0.01696  -0.00002   0.28911  -0.28645
  25        3PX         0.00561  -0.00414   0.00009  -0.10829   0.08955
  26        3PY         0.00121  -0.00079  -0.00013  -0.02012   0.02085
  27        3PZ        -0.00003  -0.00004   0.00011  -0.00151  -0.00078
  28        4S         -0.00109  -0.01199   0.00554   0.11321  -0.13657
  29        4PX        -0.00025   0.00406  -0.00183  -0.02230   0.02449
  30        4PY         0.00002   0.00096  -0.00062  -0.00524   0.00594
  31        4PZ        -0.00003  -0.00007   0.00001   0.00024  -0.00037
  32        5D 0        0.00159  -0.00127   0.00004  -0.00873   0.00793
  33        5D+1        0.00004   0.00006  -0.00008   0.00042   0.00034
  34        5D-1        0.00001   0.00001  -0.00003  -0.00020   0.00027
  35        5D+2       -0.00249   0.00202  -0.00013   0.01351  -0.01154
  36        5D-2       -0.00116   0.00079   0.00013   0.00530  -0.00615
  37 3   N  1S          0.00102  -0.00045   0.55758  -0.04612  -0.08492
  38        2S          0.00122  -0.00036   0.46505  -0.07099  -0.13208
  39        2PX         0.00090   0.00013   0.00140   0.04755   0.06058
  40        2PY         0.00009   0.00006  -0.00069  -0.00312  -0.01412
  41        2PZ         0.00001  -0.00003   0.00095   0.01084   0.02435
  42        3S         -0.00105  -0.00002   0.01675   0.19701   0.37030
  43        3PX        -0.00385  -0.00027   0.00065   0.06930   0.09498
  44        3PY        -0.00045  -0.00019  -0.00071  -0.00347  -0.02052
  45        3PZ         0.00001   0.00009   0.00108   0.01476   0.03543
  46        4S          0.00032   0.00404  -0.01250   0.07467   0.20547
  47        4PX         0.00093   0.00183  -0.00342   0.00193   0.02224
  48        4PY         0.00008   0.00004  -0.00010  -0.00522  -0.00654
  49        4PZ         0.00003   0.00013  -0.00102   0.00719   0.01461
  50        5D 0        0.00106   0.00007  -0.00051  -0.00466  -0.00754
  51        5D+1       -0.00070   0.00006  -0.00022   0.00246   0.00495
  52        5D-1       -0.00023   0.00000  -0.00053  -0.00150  -0.00364
  53        5D+2       -0.00193  -0.00011   0.00081   0.00836   0.01388
  54        5D-2        0.00027  -0.00015   0.00051   0.00026  -0.00112
  55 4   H  1S         -0.00031  -0.00002  -0.00005   0.02108   0.05565
  56        2S         -0.00076   0.00002  -0.00144   0.01885   0.05291
  57        3S          0.00072   0.00045   0.00140  -0.01183  -0.00933
  58        4PX        -0.00018   0.00011  -0.00074   0.00452   0.00908
  59        4PY        -0.00051   0.00001  -0.00130   0.00339   0.00894
  60        4PZ         0.00049   0.00000   0.00135  -0.00294  -0.00837
  61 5   H  1S          0.00007   0.00003  -0.00012   0.00111   0.00407
  62        2S         -0.00019  -0.00012   0.00040   0.00327   0.00376
  63        3S          0.00022   0.00014   0.00019  -0.00258  -0.00025
  64        4PX        -0.00000  -0.00001   0.00027   0.00010  -0.00035
  65        4PY        -0.00001  -0.00001  -0.00028  -0.00001  -0.00010
  66        4PZ        -0.00001  -0.00000  -0.00003  -0.00001   0.00003
                           6         7         8         9        10
                           O         O         O         O         O
     Eigenvalues --    -0.65200  -0.55510  -0.54660  -0.47992  -0.37738
   1 1   N  1S          0.04149   0.02361  -0.02051   0.02764   0.00708
   2        2S          0.06618   0.03812  -0.03304   0.04465   0.01162
   3        2PX         0.09494  -0.01167  -0.02763  -0.11960   0.02941
   4        2PY        -0.03390   0.21364   0.02007  -0.04536  -0.05824
   5        2PZ         0.05621   0.00107   0.21591   0.02637   0.03660
   6        3S         -0.20594  -0.11737   0.10214  -0.14248  -0.04024
   7        3PX         0.13148  -0.02018  -0.04070  -0.16173   0.03853
   8        3PY        -0.05390   0.32909   0.03162  -0.06586  -0.08888
   9        3PZ         0.08648   0.00238   0.33203   0.04051   0.05634
  10        4S         -0.21082  -0.12879   0.11034  -0.16573  -0.01865
  11        4PX         0.07343   0.00755  -0.03369  -0.12799   0.12240
  12        4PY        -0.03485   0.22913   0.01517  -0.05517  -0.06052
  13        4PZ         0.05018  -0.00538   0.23374   0.03485   0.04381
  14        5D 0       -0.00158  -0.00026  -0.00245  -0.00028   0.00168
  15        5D+1       -0.00590  -0.00096   0.00572   0.00400   0.01913
  16        5D-1        0.00107  -0.00137   0.00355   0.00112   0.00186
  17        5D+2        0.00187  -0.00703   0.00059   0.00212   0.00727
  18        5D-2        0.00601   0.00254  -0.00045  -0.00257  -0.03544
  19 2   N  1S         -0.03082  -0.02040   0.01920  -0.07529   0.00055
  20        2S         -0.04879  -0.03266   0.03068  -0.11987   0.00067
  21        2PX         0.00570  -0.00399  -0.02584   0.20908   0.02197
  22        2PY        -0.01966   0.12953   0.01120   0.02045  -0.13110
  23        2PZ         0.02188   0.00097   0.13216   0.02603   0.06773
  24        3S          0.14182   0.09696  -0.09049   0.34052  -0.00083
  25        3PX         0.00993  -0.01120  -0.03505   0.28170   0.03432
  26        3PY        -0.03122   0.19967   0.01848   0.02427  -0.19695
  27        3PZ         0.03503   0.00152   0.20458   0.03923   0.10151
  28        4S          0.13157   0.08800  -0.09775   0.58373  -0.08542
  29        4PX        -0.00091   0.00197  -0.02114   0.14486   0.06006
  30        4PY        -0.01123   0.10538   0.01016   0.00822  -0.15912
  31        4PZ         0.01274   0.00254   0.10765   0.02507   0.08765
  32        5D 0       -0.00025   0.00084  -0.00149   0.01288  -0.00103
  33        5D+1       -0.00726  -0.00030  -0.03369  -0.00529  -0.01072
  34        5D-1       -0.00154  -0.00042  -0.00654  -0.00183  -0.00209
  35        5D+2       -0.00260   0.01106   0.00384  -0.02318  -0.00649
  36        5D-2        0.00619  -0.03150  -0.00299  -0.00470   0.01932
  37 3   N  1S         -0.04574  -0.02700   0.02675   0.00260  -0.02968
  38        2S         -0.07202  -0.04312   0.04265   0.00408  -0.04741
  39        2PX        -0.15282  -0.04387   0.03436   0.06791  -0.04809
  40        2PY        -0.08018   0.09714   0.01963  -0.00090   0.14814
  41        2PZ         0.06839   0.00424   0.09541   0.00397  -0.08528
  42        3S          0.19884   0.12550  -0.12447  -0.00730   0.13316
  43        3PX        -0.22003  -0.05920   0.04517   0.10050  -0.06703
  44        3PY        -0.11976   0.15114   0.03115  -0.00312   0.21577
  45        3PZ         0.10361   0.00899   0.14832   0.00693  -0.12050
  46        4S          0.25664   0.16570  -0.15046  -0.05539   0.31260
  47        4PX        -0.07519  -0.03560   0.02971   0.05630  -0.03854
  48        4PY        -0.05532   0.08516   0.02378   0.00248   0.19749
  49        4PZ         0.05486   0.01395   0.08236  -0.00202  -0.09408
  50        5D 0        0.01189   0.00322   0.00863  -0.00294  -0.00100
  51        5D+1       -0.00439  -0.00275   0.02712   0.00820  -0.00572
  52        5D-1       -0.01290   0.00582  -0.00060   0.00111   0.01232
  53        5D+2       -0.01981  -0.00025   0.00119   0.00703   0.00039
  54        5D-2        0.00092   0.02647   0.00077  -0.00657   0.00496
  55 4   H  1S          0.16031   0.00127  -0.00956  -0.03074  -0.08600
  56        2S          0.19638  -0.00850  -0.00607  -0.04083  -0.15039
  57        3S          0.03717   0.00111  -0.00497  -0.01565  -0.04840
  58        4PX         0.00523  -0.00642   0.00437   0.00330  -0.01617
  59        4PY         0.01451   0.00581   0.00232  -0.00200   0.00035
  60        4PZ        -0.01407   0.00195   0.00756   0.00193   0.00448
  61 5   H  1S          0.01139   0.02752  -0.00463  -0.01071   0.11102
  62        2S          0.01560   0.03951  -0.00802  -0.01975   0.18116
  63        3S          0.00917   0.02307  -0.00524  -0.00953   0.15726
  64        4PX        -0.00039   0.00154   0.00012  -0.00044   0.00058
  65        4PY        -0.00208  -0.00106   0.00091   0.00104  -0.00151
  66        4PZ         0.00032   0.00002   0.00122   0.00012  -0.00059
                          11        12        13        14        15
                           O         O         V         V         V
     Eigenvalues --    -0.32019  -0.23920  -0.03541   0.00939   0.03801
   1 1   N  1S         -0.00586  -0.00741   0.00439   0.00199  -0.00898
   2        2S         -0.00963  -0.01211   0.00657   0.00323  -0.01452
   3        2PX        -0.01821  -0.01420  -0.01491  -0.02907  -0.01028
   4        2PY        -0.00781  -0.04543   0.14700   0.16139  -0.03668
   5        2PZ        -0.02396  -0.01142  -0.15638   0.16819   0.02372
   6        3S          0.03230   0.03571  -0.00108  -0.00842   0.02588
   7        3PX        -0.02629  -0.01790  -0.03907  -0.04721  -0.04607
   8        3PY        -0.00985  -0.06999   0.22544   0.24990  -0.05661
   9        3PZ        -0.03547  -0.01817  -0.24251   0.26057   0.03547
  10        4S          0.02039   0.05308  -0.19861  -0.04818   0.14711
  11        4PX        -0.00483  -0.02940   0.13633  -0.06143   0.31884
  12        4PY        -0.01160  -0.08599   0.33919   0.38875  -0.07847
  13        4PZ        -0.02565  -0.02077  -0.33642   0.40663   0.09092
  14        5D 0       -0.00368   0.00181  -0.00079   0.00083   0.01360
  15        5D+1       -0.04697   0.00791   0.02142  -0.00706   0.00205
  16        5D-1       -0.00674   0.00300   0.00217  -0.00186  -0.00500
  17        5D+2        0.00543  -0.01207   0.00820   0.00486  -0.02131
  18        5D-2       -0.01885   0.03291  -0.01544  -0.00373  -0.01155
  19 2   N  1S          0.00025   0.00188  -0.00213  -0.00078   0.01316
  20        2S          0.00046   0.00328  -0.00384  -0.00129   0.02192
  21        2PX         0.02508  -0.01098   0.01363   0.02229   0.03726
  22        2PY        -0.06318   0.12254  -0.14423  -0.13256   0.04268
  23        2PZ        -0.15717   0.02603   0.15736  -0.14165  -0.02717
  24        3S         -0.00306  -0.01480   0.01783   0.00498  -0.09321
  25        3PX         0.03602  -0.01618   0.01623   0.03111   0.05491
  26        3PY        -0.09436   0.18041  -0.20747  -0.18805   0.06444
  27        3PZ        -0.23420   0.03778   0.22476  -0.20016  -0.04122
  28        4S          0.00531   0.02463  -0.10164   0.00125  -0.29045
  29        4PX         0.03157  -0.03746   0.08312   0.06298   0.14002
  30        4PY        -0.09043   0.20939  -0.32856  -0.34760   0.12668
  31        4PZ        -0.22678   0.04630   0.37374  -0.37356  -0.07111
  32        5D 0        0.00065   0.00085  -0.00109   0.00017  -0.00109
  33        5D+1        0.01860  -0.00144   0.00566  -0.00936  -0.00051
  34        5D-1        0.00385  -0.00023   0.00110  -0.00202  -0.00107
  35        5D+2       -0.00405   0.00158   0.00409   0.00405   0.00176
  36        5D-2        0.00618  -0.00832  -0.00475  -0.00889   0.00174
  37 3   N  1S          0.02452   0.02879   0.02090   0.00409   0.03585
  38        2S          0.03935   0.04634   0.03311   0.00651   0.05661
  39        2PX         0.01922   0.03729   0.07455   0.02957  -0.00560
  40        2PY         0.07904  -0.11944  -0.04634  -0.12008   0.11051
  41        2PZ         0.19695  -0.03218   0.04221  -0.11434  -0.08162
  42        3S         -0.11830  -0.14299  -0.08112  -0.01643  -0.15295
  43        3PX         0.02451   0.04566   0.10608   0.04045  -0.05346
  44        3PY         0.11827  -0.17439  -0.06351  -0.16870   0.13965
  45        3PZ         0.28859  -0.05241   0.05130  -0.15798  -0.10315
  46        4S         -0.16514  -0.24006  -0.24050  -0.07234  -0.56908
  47        4PX         0.03071   0.06717   0.24061   0.08129   0.26641
  48        4PY         0.13680  -0.20559  -0.08008  -0.31272   0.36504
  49        4PZ         0.31520  -0.05049   0.09478  -0.31409  -0.26147
  50        5D 0        0.01265  -0.00977  -0.00310  -0.00673  -0.00047
  51        5D+1        0.01472  -0.00194  -0.01721   0.01575  -0.00534
  52        5D-1       -0.00320  -0.00406  -0.00678   0.00103   0.00156
  53        5D+2        0.00375  -0.00300   0.00036  -0.00710   0.00369
  54        5D-2        0.00438  -0.02139   0.01617   0.01080   0.00839
  55 4   H  1S          0.02958   0.00764   0.08978  -0.00057   0.04164
  56        2S          0.04393   0.00625   0.19820  -0.00733  -0.05887
  57        3S          0.01859   0.02707   0.34478   0.08199   1.55227
  58        4PX         0.00539   0.00484  -0.00191   0.00342  -0.01835
  59        4PY         0.01175  -0.00978  -0.00398  -0.01767  -0.01590
  60        4PZ         0.01563  -0.00424   0.00206  -0.01546   0.01773
  61 5   H  1S          0.08106   0.20447   0.02676   0.02823  -0.03218
  62        2S          0.13185   0.37967   0.05321   0.04916  -0.07092
  63        3S          0.12372   0.43274   0.07525   0.15925  -0.18038
  64        4PX        -0.00108  -0.00438  -0.00236  -0.00145  -0.00026
  65        4PY         0.00261   0.00546   0.00668   0.00684  -0.00431
  66        4PZ         0.00420   0.00260   0.00413  -0.00177  -0.00044
                          16        17        18        19        20
                           V         V         V         V         V
     Eigenvalues --     0.22754   0.25722   0.36798   0.42059   0.45515
   1 1   N  1S         -0.06461   0.02912  -0.00058   0.00895   0.04874
   2        2S         -0.10480   0.04871   0.00124   0.01941   0.09207
   3        2PX        -0.07106   0.03673   0.03781   0.15042  -0.05499
   4        2PY         0.02586  -0.04275  -0.04528   0.04777   0.02911
   5        2PZ        -0.03016   0.00229   0.05330  -0.02443  -0.02454
   6        3S          0.24489  -0.16599  -0.07379  -0.21793  -0.66606
   7        3PX        -0.11541   0.03759   0.09921   0.23484  -0.04779
   8        3PY         0.03820  -0.08119  -0.08319   0.09839   0.10188
   9        3PZ        -0.04191  -0.00303   0.09002  -0.08207  -0.06526
  10        4S          2.57400  -0.91221   0.28059   1.29069  -1.86019
  11        4PX        -0.41916   0.39366   0.06848   5.12155  -1.61673
  12        4PY         0.20048  -0.00764  -0.24311   0.64246  -0.43273
  13        4PZ        -0.17366   0.10272   0.29571   0.27442   0.07588
  14        5D 0        0.03043  -0.01337   0.00788   0.00595   0.00492
  15        5D+1       -0.00895  -0.00036   0.02103  -0.00580  -0.00936
  16        5D-1        0.00123   0.00069  -0.02106   0.00860  -0.00080
  17        5D+2       -0.05262   0.01875  -0.00748  -0.01206  -0.01083
  18        5D-2       -0.01462  -0.00575  -0.01652   0.00501   0.00777
  19 2   N  1S          0.04411  -0.01059   0.01202   0.04528   0.00386
  20        2S          0.07498  -0.01719   0.02113   0.07698   0.01768
  21        2PX         0.14415  -0.04499   0.02939   0.01552   0.06538
  22        2PY        -0.00054  -0.00716   0.00354  -0.00543   0.00648
  23        2PZ         0.02002  -0.00212  -0.00136  -0.00273   0.00952
  24        3S         -0.30345   0.04974  -0.09121  -0.24585  -0.33566
  25        3PX         0.21743  -0.04974   0.05588   0.02942   0.33410
  26        3PY         0.00130  -0.03452  -0.03811  -0.01452   0.07613
  27        3PZ         0.02702  -0.00043   0.04202  -0.02072   0.01400
  28        4S         -0.57956   0.05848  -0.15035  -4.98218   2.75588
  29        4PX         0.57995  -0.18367   0.13276   2.73996  -2.10678
  30        4PY        -0.01839   0.06697   0.23194   0.64916  -0.44411
  31        4PZ         0.09276  -0.03994  -0.21766  -0.00243  -0.02424
  32        5D 0       -0.00101  -0.00053  -0.00029   0.00226   0.02013
  33        5D+1        0.00395   0.00026  -0.01083   0.00791   0.00855
  34        5D-1        0.00159   0.00048  -0.00482   0.00229   0.00040
  35        5D+2        0.00391  -0.00569  -0.00478  -0.00051  -0.02662
  36        5D-2       -0.00435   0.00637   0.00998  -0.00784  -0.02705
  37 3   N  1S          0.04552  -0.01705   0.02359  -0.01732   0.01024
  38        2S          0.07542  -0.02869   0.04201  -0.02198   0.02355
  39        2PX        -0.20219   0.06001   0.03336  -0.05026  -0.08395
  40        2PY        -0.03109   0.02002   0.07627  -0.03500  -0.03976
  41        2PZ         0.00900   0.01527  -0.09592   0.00380   0.02682
  42        3S         -0.23708   0.11316  -0.17061  -0.15266  -0.21080
  43        3PX        -0.30822   0.06164   0.02000  -0.24541  -0.38690
  44        3PY        -0.02350   0.06635   0.14129  -0.08531  -0.11617
  45        3PZ         0.00830   0.02838  -0.20792  -0.00125   0.06988
  46        4S         -1.21274   0.37628  -0.46373   4.37418  -0.38698
  47        4PX        -1.09913   0.66552   0.60899   2.53256   0.39713
  48        4PY        -0.19907  -0.16936   0.73416  -0.35499   0.24769
  49        4PZ        -0.06459  -0.01957  -0.62573   0.67829  -0.15782
  50        5D 0       -0.00551   0.01477  -0.00010   0.00938   0.01492
  51        5D+1       -0.00668   0.00691  -0.00719  -0.01501  -0.00591
  52        5D-1        0.00283  -0.00124  -0.01377  -0.00689   0.00445
  53        5D+2        0.01466  -0.00310  -0.00813  -0.02560  -0.03195
  54        5D-2        0.01535  -0.00049   0.00588   0.00776   0.00014
  55 4   H  1S          0.01392  -0.01194   0.12705  -0.02775  -0.01368
  56        2S          0.16289   0.06081   1.96591  -0.81513  -0.02987
  57        3S         -0.59878  -0.12282  -0.90624   0.35965   0.04148
  58        4PX        -0.02716   0.00217   0.03146  -0.00812   0.03304
  59        4PY         0.02037   0.02574  -0.00452  -0.02939   0.00323
  60        4PZ        -0.01471   0.00852   0.00221   0.02342  -0.00608
  61 5   H  1S         -0.03758  -0.11134   0.01619  -0.00033   0.00667
  62        2S         -0.40958  -1.22314   0.07959   0.08773   0.11523
  63        3S          0.53063   1.66614   0.01224  -0.00399  -0.14702
  64        4PX        -0.00869   0.00433   0.02203   0.04012   0.03059
  65        4PY        -0.00255   0.00995   0.02953   0.00426   0.00215
  66        4PZ        -0.00378   0.00019  -0.02519   0.02491  -0.00383
                          21        22        23        24        25
                           V         V         V         V         V
     Eigenvalues --     0.50189   0.52628   0.60543   0.64452   0.67510
   1 1   N  1S         -0.00603   0.00055  -0.01708  -0.02967   0.04063
   2        2S         -0.01151   0.00121  -0.03334  -0.05773   0.07876
   3        2PX        -0.01726   0.01277  -0.03568   0.00955  -0.10846
   4        2PY        -0.04773  -0.10510  -0.00890   0.06785   0.04269
   5        2PZ        -0.10600   0.03245   0.02208   0.00789   0.02039
   6        3S          0.07366  -0.00660   0.22191   0.36680  -0.49750
   7        3PX        -0.01630   0.03909  -0.08501   0.17336  -0.52123
   8        3PY        -0.18126  -0.44369  -0.03296   0.24242   0.14802
   9        3PZ        -0.43162   0.14816   0.09115   0.04235   0.05124
  10        4S         -0.29538  -0.10377  -0.77066  -0.76725   0.45197
  11        4PX        -0.32555   0.30413   1.12420   0.23856   1.56272
  12        4PY         0.19372   0.67766   0.28473  -0.34095  -0.31204
  13        4PZ         0.51749  -0.22474  -0.28939  -0.14622  -0.16745
  14        5D 0        0.00808   0.00650   0.01125  -0.00005  -0.00422
  15        5D+1       -0.00402   0.00191   0.06612  -0.01413   0.01956
  16        5D-1       -0.00543   0.00881   0.02233   0.00546   0.00426
  17        5D+2        0.00084   0.00726  -0.01582  -0.00092   0.01287
  18        5D-2       -0.00330  -0.01708   0.00466  -0.04942  -0.04700
  19 2   N  1S         -0.00671   0.00343  -0.01602  -0.04031   0.05238
  20        2S         -0.01188   0.00639  -0.03052  -0.07781   0.10243
  21        2PX         0.01808   0.02948   0.02470   0.11729  -0.13050
  22        2PY        -0.04133  -0.14984   0.03086  -0.10380  -0.10712
  23        2PZ        -0.12586   0.05515   0.13157  -0.01779  -0.00374
  24        3S          0.04664  -0.04597   0.18126   0.55646  -0.79602
  25        3PX         0.06567   0.10749   0.10225   0.38737  -0.34771
  26        3PY        -0.15046  -0.53361   0.11976  -0.36010  -0.36387
  27        3PZ        -0.45507   0.19116   0.45859  -0.07182  -0.01078
  28        4S          0.36628  -0.24340  -0.77182  -0.58016  -0.12729
  29        4PX        -0.33330  -0.04705   0.03562  -0.33582   0.27663
  30        4PY         0.09517   0.61867  -0.17703   0.72544   0.73815
  31        4PZ         0.49764  -0.20330  -0.62081   0.17414   0.05518
  32        5D 0       -0.00033   0.00003  -0.00288  -0.00284   0.01185
  33        5D+1        0.03367  -0.01147  -0.02479   0.00479  -0.00486
  34        5D-1        0.00736  -0.00220  -0.00104   0.00347   0.00139
  35        5D+2       -0.00479  -0.01367   0.00383   0.00261  -0.02500
  36        5D-2        0.01273   0.03598  -0.00517   0.01244   0.00232
  37 3   N  1S         -0.00480   0.00494  -0.01385   0.00492  -0.01438
  38        2S         -0.00941   0.00989  -0.02472   0.01020  -0.02653
  39        2PX        -0.01152   0.00062  -0.05368  -0.06661   0.02301
  40        2PY        -0.03495  -0.08696  -0.00821   0.13684   0.07304
  41        2PZ        -0.12510   0.04302  -0.16446  -0.00027  -0.03925
  42        3S          0.06215  -0.08005   0.07553  -0.14997   0.18789
  43        3PX        -0.00458   0.01234  -0.11814  -0.16992   0.05113
  44        3PY        -0.13667  -0.28974  -0.03951   0.48289   0.24311
  45        3PZ        -0.43288   0.13410  -0.58154   0.03590  -0.13867
  46        4S         -0.11004   0.32152   1.34990   0.96980   0.83773
  47        4PX        -0.15555   0.13474   0.54843   0.48104   0.01497
  48        4PY         0.10413   0.17636  -0.32611  -0.92572  -0.42314
  49        4PZ         0.44041  -0.01197   1.35037   0.26566   0.45318
  50        5D 0       -0.01254   0.00094  -0.01748  -0.01424  -0.00039
  51        5D+1       -0.02471   0.00983  -0.03627  -0.00318  -0.01673
  52        5D-1       -0.00335   0.00438  -0.00068  -0.00056  -0.00088
  53        5D+2        0.01061  -0.00226   0.02275   0.01159  -0.00573
  54        5D-2       -0.00330  -0.02081   0.01068   0.03919   0.02628
  55 4   H  1S          0.00696  -0.02497   0.00076   0.00865   0.01538
  56        2S          0.00670  -0.31242  -0.57428  -0.37165  -0.13289
  57        3S         -0.16078   0.50118  -0.02143  -0.24330  -0.27463
  58        4PX        -0.01805  -0.01104  -0.09916  -0.03949  -0.05327
  59        4PY        -0.01301   0.01415  -0.02090  -0.06866  -0.02519
  60        4PZ         0.00565  -0.02077   0.02707   0.02767   0.00270
  61 5   H  1S          0.00103   0.01099  -0.01002   0.00150   0.02131
  62        2S         -0.02626   0.11001  -0.08335   0.13103   0.03917
  63        3S         -0.04955  -0.32756   0.12094   0.16171   0.07149
  64        4PX         0.01024   0.03038   0.00309  -0.03147  -0.06288
  65        4PY        -0.00211  -0.01411  -0.00850   0.02288   0.00961
  66        4PZ         0.02282   0.00158   0.08002   0.02374   0.02736
                          26        27        28        29        30
                           V         V         V         V         V
     Eigenvalues --     0.69002   0.74054   0.76777   0.92911   1.02952
   1 1   N  1S         -0.00684   0.00514  -0.04802  -0.00283  -0.00544
   2        2S         -0.01328   0.01044  -0.09379  -0.00648  -0.01329
   3        2PX        -0.02156  -0.01305  -0.10729  -0.29871  -0.13488
   4        2PY        -0.08484  -0.14645  -0.00223  -0.02557   0.01555
   5        2PZ         0.16600  -0.09564  -0.02938  -0.01391  -0.02764
   6        3S          0.08605  -0.07832   0.72158   0.15186   0.15250
   7        3PX        -0.12155  -0.04853  -0.46474  -0.29386  -0.45639
   8        3PY        -0.29613  -0.50191  -0.01443  -0.03921   0.06610
   9        3PZ         0.56184  -0.32390  -0.10779   0.01004  -0.11324
  10        4S         -0.57143  -0.20830  -1.55445  -1.71545   0.38194
  11        4PX         1.97987   0.98070   2.14533  -1.79856  10.82141
  12        4PY         1.03953   1.66030  -0.14438  -0.27409   0.90087
  13        4PZ        -1.44565   0.90455   0.63977  -0.11944   0.83325
  14        5D 0        0.00548   0.01232   0.01027  -0.00035  -0.00293
  15        5D+1       -0.01848   0.00111  -0.00108  -0.05697   0.04145
  16        5D-1        0.01793   0.01260  -0.02884  -0.00038   0.04445
  17        5D+2       -0.01529  -0.00687  -0.01739  -0.02776   0.00300
  18        5D-2       -0.00643  -0.01884  -0.01206   0.08401  -0.06045
  19 2   N  1S          0.00129   0.00896  -0.00871  -0.04292  -0.02959
  20        2S          0.00211   0.01772  -0.01964  -0.07905  -0.06097
  21        2PX        -0.00176  -0.03502  -0.00220  -0.22798  -0.00338
  22        2PY         0.05688   0.05340   0.00319  -0.06171   0.02327
  23        2PZ        -0.12599   0.05066   0.00032   0.00557  -0.01237
  24        3S         -0.03369  -0.15569   0.11207   0.43529   0.51248
  25        3PX         0.02616  -0.07979  -0.08142  -0.61633   0.27055
  26        3PY         0.20646   0.21097  -0.02469  -0.14047   0.07413
  27        3PZ        -0.44714   0.18204   0.02157  -0.00227  -0.00435
  28        4S         -1.38840  -0.66987  -1.09723   1.87614  -9.36862
  29        4PX         0.45102   0.37944   0.26107  -0.31534   3.23697
  30        4PY        -0.42636  -0.74719   0.26249  -0.14167   1.04515
  31        4PZ         1.15678  -0.56926  -0.24556   0.08295  -0.24925
  32        5D 0        0.00040   0.01005  -0.02018   0.03071   0.02204
  33        5D+1        0.00400  -0.00231  -0.00659   0.02249  -0.04122
  34        5D-1        0.00497   0.00223  -0.00982   0.00544  -0.00665
  35        5D+2       -0.00052  -0.00557   0.02710  -0.03623  -0.06819
  36        5D-2       -0.00120  -0.00494   0.02229  -0.05489   0.03879
  37 3   N  1S         -0.00801   0.00493  -0.05936   0.06642   0.05010
  38        2S         -0.01357   0.01079  -0.11711   0.12632   0.10144
  39        2PX        -0.02779  -0.01629  -0.17376  -0.19306   0.03970
  40        2PY         0.02922   0.13464  -0.04307   0.00971  -0.03542
  41        2PZ        -0.02236   0.03762   0.06003  -0.03705   0.02695
  42        3S         -0.00379  -0.14469   0.93423  -0.86820  -0.96780
  43        3PX        -0.10039  -0.06960  -0.35412  -0.50284   0.28556
  44        3PY         0.08624   0.47159  -0.07316  -0.03293  -0.16434
  45        3PZ        -0.05715   0.18591   0.13447  -0.02452   0.22263
  46        4S          1.83656   1.41769  -0.01641   0.13956   9.66916
  47        4PX         0.98352   0.53141   1.72362   0.35988   3.57153
  48        4PY        -0.63781  -1.48365   0.77125   0.09272  -0.35015
  49        4PZ         0.88229  -0.20812  -0.80244   0.00083   0.72449
  50        5D 0       -0.00419  -0.00546  -0.03934  -0.03134  -0.04557
  51        5D+1       -0.00937  -0.00678   0.04280   0.03390  -0.06854
  52        5D-1        0.00037   0.00007   0.01643  -0.01797   0.01709
  53        5D+2       -0.00048  -0.00938   0.07903   0.04575   0.02644
  54        5D-2        0.01670   0.03254  -0.00956  -0.04575   0.09473
  55 4   H  1S          0.03142   0.02295  -0.01768  -0.03104   0.10261
  56        2S         -0.50474  -0.40141   0.73776  -0.00801  -0.88045
  57        3S          0.20499  -0.18578   0.92297  -0.10185  -0.02738
  58        4PX        -0.14613  -0.07068   0.03394   0.04012  -0.32030
  59        4PY        -0.02490  -0.08640   0.15794  -0.07123  -0.11754
  60        4PZ        -0.00888   0.00591  -0.17154   0.08657   0.02381
  61 5   H  1S          0.00098   0.00720   0.03049  -0.03492  -0.01047
  62        2S          0.09271   0.34259   0.05991  -0.02795  -0.15475
  63        3S          0.01282  -0.04193   0.05494   0.02887   0.11811
  64        4PX         0.01685   0.00440  -0.01712   0.11864   0.20104
  65        4PY         0.01599   0.05960   0.13685  -0.04706  -0.09060
  66        4PZ         0.06253   0.02147  -0.03929  -0.01884   0.09031
                          31        32        33        34        35
                           V         V         V         V         V
     Eigenvalues --     1.11527   1.22245   1.34296   1.37386   1.46325
   1 1   N  1S          0.07926  -0.01175  -0.00674  -0.00491  -0.00117
   2        2S          0.15220  -0.02285  -0.01397  -0.01049  -0.00273
   3        2PX        -0.11972  -0.00304  -0.05355  -0.03433   0.04216
   4        2PY        -0.04583   0.00844  -0.02792  -0.01801   0.00388
   5        2PZ         0.00680   0.00048  -0.00779   0.00545   0.00032
   6        3S         -1.33103   0.22385   0.09242   0.08489   0.08162
   7        3PX        -0.02020  -0.02719  -0.19315  -0.16572   0.22061
   8        3PY        -0.03209  -0.00699  -0.05791  -0.05297   0.02998
   9        3PZ         0.00034  -0.02719  -0.01725   0.01427  -0.05963
  10        4S          7.29668  -1.38026   0.42536   0.01047  -2.15009
  11        4PX         1.84365   0.95389   2.73828   3.92916  -4.44033
  12        4PY         0.59433   0.15785   0.44004   0.68654  -0.67161
  13        4PZ        -0.06419   0.26182   0.21149   0.04276   0.10785
  14        5D 0       -0.11048   0.13674   0.00886   0.00860   0.01897
  15        5D+1        0.02974   0.04950   0.00844   0.00150   0.38682
  16        5D-1       -0.00465   0.02328  -0.05542   0.06831   0.08327
  17        5D+2        0.21352   0.00287   0.00907  -0.01198  -0.08507
  18        5D-2        0.05061   0.03118   0.00385   0.00635   0.08571
  19 2   N  1S         -0.07554   0.00776  -0.00955  -0.00506   0.00848
  20        2S         -0.14464   0.01437  -0.02003  -0.01151   0.01839
  21        2PX        -0.13775   0.01679  -0.00178   0.01573  -0.02737
  22        2PY        -0.02626  -0.00486   0.01006   0.00788  -0.03128
  23        2PZ        -0.00242  -0.01628  -0.00574  -0.00282  -0.06253
  24        3S          1.21764  -0.13144   0.17798   0.11509  -0.21673
  25        3PX         0.05714   0.00152   0.03385   0.08732  -0.15891
  26        3PY         0.01709  -0.01170   0.02517   0.02729  -0.06999
  27        3PZ        -0.00271  -0.02289  -0.00502  -0.00668  -0.10607
  28        4S         -5.79514  -0.07955  -2.57249  -3.33746   4.65922
  29        4PX         2.67683  -0.06747   0.96566   1.19585  -1.74550
  30        4PY         0.45875  -0.00322   0.17676   0.22427  -0.39087
  31        4PZ         0.03504  -0.08027  -0.04322   0.01511  -0.06861
  32        5D 0        0.09072   0.01468   0.00950   0.00568  -0.01624
  33        5D+1       -0.00611  -0.04146  -0.01316  -0.01063  -0.24764
  34        5D-1       -0.00171  -0.00721  -0.02257   0.02071  -0.04853
  35        5D+2       -0.13985   0.03413  -0.01271  -0.00773   0.05677
  36        5D-2       -0.05681  -0.00157   0.00256  -0.00684  -0.07909
  37 3   N  1S         -0.01974   0.01746   0.00290   0.00563   0.00225
  38        2S         -0.03826   0.03552   0.00415   0.01283   0.00369
  39        2PX         0.01093  -0.00663  -0.04575  -0.01631  -0.00944
  40        2PY        -0.00680  -0.00263  -0.00256   0.00102   0.01842
  41        2PZ         0.00984  -0.00953   0.00729  -0.03104   0.07984
  42        3S          0.45170  -0.35722  -0.02855  -0.20691   0.01075
  43        3PX        -0.07973   0.05309  -0.06391   0.00934  -0.15750
  44        3PY         0.00952  -0.06926  -0.04279   0.02358   0.05721
  45        3PZ        -0.05855   0.03578   0.07792  -0.03533   0.08459
  46        4S         -1.72757   1.83580   1.91204   3.44931  -2.74888
  47        4PX        -0.83973   0.65346   0.91691   1.43602  -0.49493
  48        4PY         0.00292  -0.27819   0.00739  -0.46342   0.16467
  49        4PZ        -0.13925  -0.08515  -0.04664   0.59345  -0.39387
  50        5D 0        0.04438   0.23632   0.03134  -0.01655  -0.14192
  51        5D+1       -0.03270  -0.09498  -0.00565  -0.02214  -0.35279
  52        5D-1        0.00704  -0.00128  -0.09530   0.04029   0.06355
  53        5D+2       -0.00969   0.16555  -0.01454  -0.02449  -0.00479
  54        5D-2        0.03732  -0.01053  -0.01757  -0.04535  -0.05205
  55 4   H  1S         -0.01308   0.02952   0.11754  -0.01572   0.10267
  56        2S          0.33186  -0.29443  -0.13373  -0.43647   0.11363
  57        3S         -0.04747   0.00247   0.11246   0.04583   0.07301
  58        4PX        -0.08745  -0.12323   0.27070   0.02013  -0.41681
  59        4PY         0.14802   0.53624  -0.13482  -0.03464   0.13920
  60        4PZ        -0.06600   0.58677   0.12209   0.11114  -0.26496
  61 5   H  1S          0.03756   0.06634  -0.00358  -0.01679  -0.02606
  62        2S          0.10108   0.02947  -0.02297   0.00612   0.05910
  63        3S         -0.11577  -0.07251   0.04144   0.08326   0.02816
  64        4PX        -0.15595  -0.16023  -0.62960  -0.33367  -0.07275
  65        4PY         0.13582   0.21259  -0.51918  -0.22836  -0.27232
  66        4PZ        -0.00740   0.06575   0.41744  -0.88792   0.01145
                          36        37        38        39        40
                           V         V         V         V         V
     Eigenvalues --     1.49118   1.64319   1.65443   1.70082   1.77380
   1 1   N  1S         -0.00907   0.00153  -0.00137   0.00044  -0.00483
   2        2S         -0.01808   0.00240  -0.00280  -0.00007  -0.00903
   3        2PX         0.01671   0.04097  -0.00430   0.05753  -0.02108
   4        2PY        -0.00458   0.02749  -0.01222   0.02025   0.02565
   5        2PZ        -0.00997  -0.03106  -0.00966  -0.01196  -0.01218
   6        3S          0.25782  -0.01931   0.02646   0.04904   0.10592
   7        3PX         0.18301   0.02096  -0.03938   0.02223  -0.06384
   8        3PY         0.07943   0.03767  -0.02735   0.01374   0.02104
   9        3PZ        -0.00120  -0.04714  -0.01402  -0.01326   0.00443
  10        4S         -3.24299  -0.17115   0.10411  -1.03904  -0.28965
  11        4PX        -3.64519  -0.26891   1.22410   1.62523   2.33130
  12        4PY        -0.88350  -0.27804   0.15138  -0.07921  -0.02790
  13        4PZ        -0.06377   0.27283   0.05496   0.39784  -0.12137
  14        5D 0       -0.01637  -0.03167  -0.60758  -0.00064   0.14046
  15        5D+1       -0.13130  -0.21790   0.05857  -0.22524   0.16986
  16        5D-1        0.01645   0.58659  -0.00338  -0.40075   0.01312
  17        5D+2       -0.00371   0.01362  -0.37702  -0.04363  -0.00758
  18        5D-2       -0.37599   0.12431  -0.00804   0.27021   0.14803
  19 2   N  1S          0.00918   0.00380  -0.00030   0.00687   0.00120
  20        2S          0.01860   0.00881  -0.00108   0.01439   0.00134
  21        2PX        -0.04890   0.01147   0.01440   0.03126   0.02560
  22        2PY         0.05482  -0.01940  -0.01574  -0.03746  -0.00774
  23        2PZ         0.02574   0.01982  -0.00923   0.05212  -0.03490
  24        3S         -0.24196  -0.06743   0.01991  -0.11409  -0.00122
  25        3PX        -0.22890   0.04875   0.04041   0.09888   0.05228
  26        3PY         0.05911  -0.02465  -0.02599  -0.05155  -0.02183
  27        3PZ         0.04022   0.03214  -0.01473   0.08352  -0.05221
  28        4S          4.55500   0.34130  -1.05126  -0.82395  -1.71241
  29        4PX        -1.77242  -0.16643   0.37200   0.18861   0.56206
  30        4PY        -0.31287   0.05709   0.10839   0.19407   0.27390
  31        4PZ        -0.02022  -0.11067  -0.00324  -0.16991   0.10158
  32        5D 0       -0.04861  -0.00780  -0.45517   0.01045   0.15687
  33        5D+1        0.08353  -0.02459  -0.04194   0.29128  -0.16023
  34        5D-1        0.03345   0.42513  -0.02546  -0.29595  -0.07624
  35        5D+2       -0.09092   0.04615  -0.21023   0.10476   0.09188
  36        5D-2        0.22748  -0.06835  -0.18693  -0.16938   0.01476
  37 3   N  1S          0.02982  -0.02046   0.00627  -0.00508   0.02609
  38        2S          0.06019  -0.04279   0.01296  -0.00715   0.05395
  39        2PX        -0.02179   0.00475   0.00495   0.03722  -0.00165
  40        2PY        -0.07764  -0.01476  -0.00588  -0.00764  -0.04043
  41        2PZ        -0.02387   0.01998  -0.00103   0.01807   0.05165
  42        3S         -0.52083   0.32199  -0.14319  -0.08031  -0.55217
  43        3PX        -0.06282  -0.09278   0.06446   0.04938   0.16747
  44        3PY        -0.17944  -0.14439  -0.05219  -0.03515  -0.14403
  45        3PZ        -0.05273   0.14148   0.00057   0.06260  -0.01067
  46        4S         -0.98215  -0.53578   1.15093   1.73757   2.64922
  47        4PX        -0.17108   0.24464   0.27983   1.26002   0.52992
  48        4PY         0.53152   0.43305   0.01460   0.17847   0.56521
  49        4PZ        -0.01104  -0.43894   0.08353  -0.11451   0.47424
  50        5D 0        0.03321   0.04024  -0.10282   0.02013  -0.10399
  51        5D+1        0.06058   0.11791   0.04015   0.10992  -0.00540
  52        5D-1        0.08581   0.17787  -0.00870   0.09576   0.03293
  53        5D+2        0.00848  -0.01304  -0.06734   0.00814  -0.01088
  54        5D-2        0.33990  -0.14104  -0.02724  -0.14192  -0.17831
  55 4   H  1S          0.05095  -0.19433  -0.03502  -0.33702  -0.29136
  56        2S         -0.09454   0.70277  -0.07112   0.64682   0.15631
  57        3S          0.07166  -0.13427   0.00377  -0.20157  -0.07748
  58        4PX        -0.33281  -0.35804   0.03331  -0.58128   0.15752
  59        4PY         0.05764  -0.16861   0.07717   0.04245  -0.30465
  60        4PZ        -0.25616   0.11150   0.14881  -0.10322  -0.15567
  61 5   H  1S          0.01613  -0.01872  -0.03966  -0.03514  -0.44365
  62        2S         -0.04396   0.01971   0.05171   0.03399   0.38216
  63        3S         -0.13402   0.00508  -0.11267   0.05347  -0.44831
  64        4PX        -0.42661  -0.10470  -0.11859  -0.15741  -0.42146
  65        4PY         0.19109  -0.07122   0.19085  -0.11968   0.68579
  66        4PZ         0.00458   0.13384   0.03440   0.02479   0.07069
                          41        42        43        44        45
                           V         V         V         V         V
     Eigenvalues --     1.84867   2.07827   2.10406   2.18272   2.24299
   1 1   N  1S         -0.00921  -0.00049   0.00353  -0.00195   0.00564
   2        2S         -0.01935  -0.00158   0.00838  -0.00303   0.01660
   3        2PX        -0.00898   0.00139   0.00236   0.01648   0.01850
   4        2PY        -0.03635  -0.04082   0.01398  -0.06269   0.15838
   5        2PZ         0.03908  -0.02205  -0.00790  -0.12180  -0.03909
   6        3S          0.20162   0.00793  -0.04059   0.07134  -0.14279
   7        3PX        -0.08328  -0.01030   0.03941  -0.00422   0.03701
   8        3PY        -0.02594  -0.01496  -0.01628  -0.01567   0.01215
   9        3PZ         0.02113  -0.01871   0.01851  -0.01580   0.00826
  10        4S         -0.83118   0.07558  -0.11096  -0.53668  -0.44081
  11        4PX         2.38757  -0.37165   0.97062   1.25097   1.28811
  12        4PY         0.06755  -0.06171   0.19619  -0.31905   0.53087
  13        4PZ         0.16174  -0.01628   0.07874  -0.35947   0.07658
  14        5D 0        0.02872  -0.42426  -0.08819   0.03096  -0.14046
  15        5D+1       -0.18593   0.00670   0.07222   0.03369  -0.09099
  16        5D-1        0.05614   0.09220  -0.52997   0.07901   0.21906
  17        5D+2       -0.09613  -0.24338  -0.07748  -0.05054   0.10164
  18        5D-2        0.24238  -0.08381  -0.01623   0.10643   0.08597
  19 2   N  1S          0.00033  -0.00135   0.00114   0.00088   0.00790
  20        2S          0.00012  -0.00277   0.00182   0.00129   0.01962
  21        2PX         0.02484  -0.00524   0.01333   0.01577   0.00012
  22        2PY        -0.04429  -0.00657   0.01469  -0.01392   0.02149
  23        2PZ         0.03688  -0.00213  -0.00527  -0.02813   0.00123
  24        3S          0.00052   0.01975  -0.01034  -0.01297  -0.16886
  25        3PX         0.04807  -0.02057   0.02399   0.02082   0.16124
  26        3PY        -0.06498  -0.01395   0.01031  -0.03605   0.06042
  27        3PZ         0.05201  -0.00660   0.00217  -0.03880   0.00414
  28        4S         -1.58856   0.26747  -0.75242  -0.72119  -0.82832
  29        4PX         0.49614  -0.09011   0.26917   0.18248   0.23437
  30        4PY         0.29561   0.00413   0.01625   0.28870  -0.19239
  31        4PZ        -0.10082   0.01282  -0.00372   0.24695   0.00079
  32        5D 0        0.06227   0.66907   0.13093  -0.00488  -0.02304
  33        5D+1        0.16102  -0.03254  -0.16134  -0.43783  -0.04153
  34        5D-1        0.29094  -0.15551   0.71911  -0.15884  -0.20181
  35        5D+2        0.13007   0.39206   0.05338   0.13960  -0.06735
  36        5D-2       -0.23841   0.05098   0.08209  -0.29443   0.51381
  37 3   N  1S          0.02823  -0.00577   0.00764   0.01521   0.02324
  38        2S          0.05582  -0.01381   0.02296   0.03582   0.05444
  39        2PX         0.07715  -0.00232  -0.01756  -0.00400   0.02221
  40        2PY         0.09741  -0.01559  -0.04813   0.02330   0.05993
  41        2PZ        -0.09436  -0.02946   0.06252   0.01203  -0.01489
  42        3S         -0.46000   0.13362  -0.27511  -0.37549  -0.51554
  43        3PX         0.23837  -0.04569   0.13194   0.16951   0.04931
  44        3PY         0.10508  -0.07237   0.18072   0.07284   0.20141
  45        3PZ        -0.13205   0.05031  -0.14403  -0.16659  -0.18014
  46        4S          2.60376  -0.34016   0.75832   1.25252   1.36600
  47        4PX         0.90899  -0.18995   0.53067   0.52863   0.90466
  48        4PY        -0.01443  -0.05948  -0.09466   0.41471  -0.30204
  49        4PZ         0.41729  -0.09011  -0.04479   0.43547   0.10452
  50        5D 0        0.00527  -0.23842  -0.14409   0.38525  -0.27418
  51        5D+1       -0.04907   0.13595   0.04827   0.41738   0.18733
  52        5D-1       -0.36234   0.05595  -0.02522  -0.03923  -0.40282
  53        5D+2       -0.08120  -0.22180   0.06973   0.18552   0.09963
  54        5D-2        0.02265   0.17365  -0.02549   0.24157  -0.48869
  55 4   H  1S          0.65608   0.14214  -0.63454  -0.27963  -0.24598
[...]
 Red. masses --     4.6933                 4.1385                 1.5852
 Frc consts  --     0.8683                 0.9575                 1.2677
 IR Inten    --    16.8580                11.4276               183.7824
  Atom  AN      X      Y      Z        X      Y      Z        X      Y      Z
     1   7     0.03  -0.24   0.37    -0.07   0.33   0.25     0.04  -0.05   0.07
     2   7    -0.03   0.13  -0.20     0.03  -0.17  -0.13     0.04   0.01  -0.01
     3   7     0.06   0.07  -0.15     0.00  -0.10  -0.07    -0.15   0.06  -0.08
     4   1    -0.55   0.29  -0.35     0.06  -0.51  -0.47     0.87  -0.30   0.33
     5   1    -0.30   0.25   0.23     0.40  -0.34  -0.05     0.01   0.02  -0.02
                     7                      8                      9
                     A                      A                      A
 Frequencies --  1302.2169              2300.8706              3514.2598
 Red. masses --     3.8089                12.2847                 1.0759
 Frc consts  --     3.8055                38.3178                 7.8289
 IR Inten    --     1.5412               422.7671                58.1646
  Atom  AN      X      Y      Z        X      Y      Z        X      Y      Z
     1   7     0.10   0.02  -0.02     0.73   0.13   0.00    -0.00   0.00  -0.00
     2   7     0.29   0.04   0.01    -0.53  -0.11  -0.00    -0.00  -0.00  -0.00
     3   7    -0.33  -0.07   0.01    -0.17  -0.02   0.00     0.04   0.05  -0.04
     4   1    -0.86   0.06  -0.18    -0.35   0.02  -0.08    -0.45  -0.65   0.61
     5   1    -0.05   0.09   0.02     0.00  -0.01  -0.01     0.00  -0.00  -0.00

 -------------------
 - Thermochemistry -
 -------------------
 Temperature   298.150 Kelvin.  Pressure   1.00000 Atm.
 Atom     1 has atomic number  7 and mass  14.00307
 Atom     2 has atomic number  7 and mass  14.00307
 Atom     3 has atomic number  7 and mass  14.00307
 Atom     4 has atomic number  1 and mass   1.00783
 Atom     5 has atomic number  1 and mass   1.00783
 Molecular mass:    44.02487 amu.
 Principal axes and moments of inertia in atomic units:
                           1         2         3
     Eigenvalues --    13.94654 163.15782 173.62536
           X            0.99865  -0.04555  -0.02488
           Y            0.04505   0.99878  -0.02007
           Z            0.02576   0.01892   0.99949
 This molecule is an asymmetric top.
 Rotational symmetry number  1.
 Rotational temperatures (Kelvin)      6.21042     0.53086     0.49885
 Rotational constants (GHZ):         129.40422    11.06132    10.39446
    1 imaginary frequencies ignored.
 Zero-point vibrational energy      59065.2 (Joules/Mol)
                                   14.11691 (Kcal/Mol)
 Warning -- explicit consideration of   3 degrees of freedom as
           vibrations may cause significant error
 Vibrational temperatures:    168.61   414.83   806.26   901.59  1676.25
          (Kelvin)           1873.60  3310.44  5056.23
 
 Zero-point correction=                           0.022497 (Hartree/Particle)
 Thermal correction to Energy=                    0.026826
 Thermal correction to Enthalpy=                  0.027770
 Thermal correction to Gibbs Free Energy=        -0.003062
 Sum of electronic and zero-point Energies=           -165.201991
 Sum of electronic and thermal Energies=              -165.197661
 Sum of electronic and thermal Enthalpies=            -165.196717
 Sum of electronic and thermal Free Energies=         -165.227549
 
                     E (Thermal)             CV                S
                      KCal/Mol        Cal/Mol-Kelvin    Cal/Mol-Kelvin
 Total                   16.834             12.065             64.892
 Electronic               0.000              0.000              1.377
 Translational            0.889              2.981             37.273
 Rotational               0.889              2.981             20.607
 Vibrational             15.056              6.103              5.634
 Vibration     1          0.608              1.935              3.146
 Vibration     2          0.685              1.695              1.484
 Vibration     3          0.916              1.117              0.523
                       Q            Log10(Q)             Ln(Q)
 Total Bot       0.256076D+02          1.408369          3.242890
 Total V=0       0.570328D+12         11.756124         27.069477
 Vib (Bot)       0.156728D-09         -9.804854        -22.576510
 Vib (Bot)    1  0.174491D+01          0.241772          0.556701
 Vib (Bot)    2  0.663874D+00         -0.177914         -0.409663
 Vib (Bot)    3  0.277251D+00         -0.557126         -1.282831
 Vib (V=0)       0.349061D+01          0.542902          1.250078
 Vib (V=0)    1  0.231513D+01          0.364575          0.839466
 Vib (V=0)    2  0.133110D+01          0.124211          0.286006
 Vib (V=0)    3  0.107172D+01          0.030083          0.069269
 Electronic      0.200000D+01          0.301030          0.693147
 Translational   0.114816D+08          7.060002         16.256256
 Rotational      0.711525D+04          3.852190          8.869996
 
                                                        RC, from TS reverse 9
                                                             IR Spectrum
 
     3                                           2                                   1    1                                          
     5                                           3                                   3    1                   6 5         2     1    
     1                                           0                                   0    6                   2 6         8     1    
     4                                           1                                   2    5                   7 0         8     7    
 
     X                                           X                                   X    X                   X X         X     X    
     X                                           X                                        X                               X          
     X                                           X                                        X                               X          
                                                 X                                        X                               X          
                                                 X                                        X                                          
                                                 X                                        X                                          
                                                 X                                        X                                          
                                                 X                                        X                                          
                                                 X                                        X                                          
                                                 X                                                                                   
                                                 X                                                                                   
                                                 X                                                                                   
                                                 X                                                                                   
                                                 X                                                                                   
                                                 X                                                                                   
                                                 X                                                                                   
                                                 X                                                                                   
                                                 X                                                                                   
                                                 X                                                                                   
                                                 X                                                                                   
 
 ***** Axes restored to original set *****
 -------------------------------------------------------------------
 Center     Atomic                   Forces (Hartrees/Bohr)
 Number     Number              X              Y              Z
 -------------------------------------------------------------------
      1        7           0.002695030    0.003102712    0.000832528
      2        7          -0.001794120   -0.001708326   -0.000310253
      3        7          -0.003147024   -0.005290761    0.000601844
      4        1          -0.000520056   -0.000138264    0.000369509
      5        1           0.002766169    0.004034638   -0.001493628
 -------------------------------------------------------------------
 Cartesian Forces:  Max     0.005290761 RMS     0.002431210
 Z-matrix is all fixed cartesians, so copy forces.
 Force constants in Cartesian coordinates: 
                1             2             3             4             5 
      1  0.181002D+00
      2 -0.532917D-02  0.127707D+00
      3 -0.226000D+00  0.148488D-01  0.175596D+01
      4 -0.741475D-01  0.536732D-02  0.114868D+00  0.530059D-01
      5  0.749020D-02 -0.672274D-01 -0.306788D-01 -0.435505D-02  0.365646D-01
      6  0.136958D+00 -0.183048D-01 -0.114881D+01 -0.156699D+00  0.241471D-01
      7 -0.107296D+00  0.649525D-02  0.766058D-01  0.217339D-01 -0.653718D-02
      8  0.206158D-02 -0.409195D-01  0.168008D-01 -0.316920D-02  0.200448D-01
      9  0.113759D+00 -0.210694D-02 -0.544619D+00  0.408241D-01  0.785594D-02
     10  0.432552D-02  0.461470D-04  0.337578D-01 -0.170597D-02  0.492711D-04
     11  0.202749D-02 -0.126576D-01  0.463737D-03 -0.312213D-03  0.661537D-02
     12 -0.285428D-01  0.176834D-03 -0.626613D-01  0.207524D-02  0.427261D-03
     13 -0.388470D-02 -0.657955D-02  0.768345D-03  0.111354D-02  0.335276D-02
     14 -0.625010D-02 -0.690272D-02 -0.143458D-02  0.246914D-02  0.400255D-02
     15  0.382455D-02  0.538617D-02  0.121137D-03 -0.106765D-02 -0.175154D-02
                6             7             8             9            10 
      6  0.121779D+01
      7  0.894826D-02  0.350709D+00
      8 -0.133138D-01  0.191224D-02  0.178997D-01
      9 -0.786190D-01  0.859315D-01 -0.470210D-02  0.795398D+00
     10  0.574585D-02 -0.267644D+00 -0.390812D-02 -0.234478D+00  0.264406D+00
     11 -0.707307D-03 -0.299948D-02  0.969572D-03  0.476849D-02  0.167820D-02
     12  0.112471D-01 -0.169288D+00  0.302411D-02 -0.171882D+00  0.195636D+00
     13  0.504671D-02  0.249676D-02  0.310351D-02 -0.603681D-02  0.617889D-03
     14  0.817886D-02  0.112918D-02  0.200547D-02 -0.581539D-02  0.213451D-02
     15 -0.160860D-02 -0.219736D-02 -0.180904D-02 -0.278262D-03 -0.661672D-03
               11            12            13            14            15 
     11  0.399608D-02
     12 -0.286456D-02  0.222367D+00
     13 -0.393992D-03  0.119609D-03 -0.343494D-03
     14  0.107659D-02 -0.763636D-03  0.517274D-03 -0.181887D-03
     15 -0.166035D-02  0.929852D-03  0.102144D-03 -0.165245D-03  0.835876D-03
 Leave Link  716 at Tue Apr 29 14:53:57 2014, MaxMem=   65536000 cpu:       0.2
 (Enter /apps/gaussian/g09/l103.exe)

 GradGradGradGradGradGradGradGradGradGradGradGradGradGradGradGradGradGrad
 Berny optimization.
 Search for a local minimum.
 Step number   1 out of a maximum of    2
 All quantities printed in internal units (Hartrees-Bohrs-Radians)
 Second derivative matrix not updated -- analytic derivatives used.
 The second derivative matrix:
                          X1        Y1        Z1        X2        Y2
           X1           0.18100
           Y1          -0.00533   0.12771
           Z1          -0.22600   0.01485   1.75596
           X2          -0.07415   0.00537   0.11487   0.05301
           Y2           0.00749  -0.06723  -0.03068  -0.00436   0.03656
           Z2           0.13696  -0.01830  -1.14881  -0.15670   0.02415
           X3          -0.10730   0.00650   0.07661   0.02173  -0.00654
           Y3           0.00206  -0.04092   0.01680  -0.00317   0.02004
           Z3           0.11376  -0.00211  -0.54462   0.04082   0.00786
           X4           0.00433   0.00005   0.03376  -0.00171   0.00005
           Y4           0.00203  -0.01266   0.00046  -0.00031   0.00662
           Z4          -0.02854   0.00018  -0.06266   0.00208   0.00043
           X5          -0.00388  -0.00658   0.00077   0.00111   0.00335
           Y5          -0.00625  -0.00690  -0.00143   0.00247   0.00400
           Z5           0.00382   0.00539   0.00012  -0.00107  -0.00175
                          Z2        X3        Y3        Z3        X4
           Z2           1.21779
           X3           0.00895   0.35071
           Y3          -0.01331   0.00191   0.01790
           Z3          -0.07862   0.08593  -0.00470   0.79540
           X4           0.00575  -0.26764  -0.00391  -0.23448   0.26441
           Y4          -0.00071  -0.00300   0.00097   0.00477   0.00168
           Z4           0.01125  -0.16929   0.00302  -0.17188   0.19564
           X5           0.00505   0.00250   0.00310  -0.00604   0.00062
           Y5           0.00818   0.00113   0.00201  -0.00582   0.00213
           Z5          -0.00161  -0.00220  -0.00181  -0.00028  -0.00066
                          Y4        Z4        X5        Y5        Z5
           Y4           0.00400
           Z4          -0.00286   0.22237
           X5          -0.00039   0.00012  -0.00034
           Y5           0.00108  -0.00076   0.00052  -0.00018
           Z5          -0.00166   0.00093   0.00010  -0.00017   0.00084
     Eigenvalues ---   -0.00191   0.00240   0.00551   0.05564   0.17493
     Eigenvalues ---    0.22528   0.59900   1.06597   2.78792
 Eigenvalue     1 is  -1.91D-03 should be greater than     0.000000 Eigenvector:
                          Y5        X5        Z5        Y3        X4
   1                   -0.69485  -0.54677   0.33454   0.20866   0.17304
                          Z4        X3        X2        Y4        Z1
   1                   -0.11751   0.09023   0.06154   0.06026  -0.03894
 Quadratic step=3.487D+00 exceeds max=3.000D-01 adjusted using Lamda=-2.097D-02.
 Angle between NR and scaled steps=   8.79 degrees.
 Angle between quadratic step and forces=  38.14 degrees.
 Linear search not attempted -- first point.
 TrRot= -0.013358 -0.022810  0.006545  1.864431  0.006959 -1.866692
 Variable       Old X    -DE/DX   Delta X   Delta X   Delta X     New X
                                 (Linear)    (Quad)   (Total)
    X1       -0.19277   0.00270   0.00000   0.01967   0.00572  -0.18705
    Y1       -0.10681   0.00310   0.00000   0.01725  -0.00389  -0.11070
    Z1        0.18296   0.00083   0.00000   0.00923   0.01601   0.19897
    X2       -0.45141  -0.00179   0.00000  -0.02105  -0.03916  -0.49058
    Y2       -0.05044  -0.00171   0.00000  -0.00197  -0.00838  -0.05881
    Z2        2.30171  -0.00031   0.00000   0.00054   0.00642   2.30812
    X3        0.53029  -0.00315   0.00000  -0.02828  -0.03789   0.49240
    Y3       -0.04259  -0.00529   0.00000  -0.11037  -0.14784  -0.19042
    Z3       -2.03262   0.00060   0.00000   0.00102   0.00965  -2.02297
    X4       -0.95465  -0.00052   0.00000  -0.05433  -0.06122  -1.01587
    Y4       -0.04232  -0.00014   0.00000   0.02859  -0.01344  -0.05576
    Z4       -3.25868   0.00037   0.00000   0.03284   0.03750  -3.22118
    X5        2.53707   0.00277   0.00000   0.13282   0.13256   2.66963
    Y5        2.81895   0.00403   0.00000   0.22298   0.17354   2.99249
    Z5       -3.02221  -0.00149   0.00000  -0.06137  -0.06958  -3.09179
         Item               Value     Threshold  Converged?
 Maximum Force            0.005291     0.000450     NO 
 RMS     Force            0.002431     0.000300     NO 
 Maximum Displacement     0.173538     0.001800     NO 
 RMS     Displacement     0.074475     0.001200     NO 
 Predicted change in Energy=-2.214572D-03
 GradGradGradGradGradGradGradGradGradGradGradGradGradGradGradGradGradGrad

 Leave Link  103 at Tue Apr 29 14:53:57 2014, MaxMem=   65536000 cpu:       0.1
 (Enter /apps/gaussian/g09/l9999.exe)

 Test job not archived.
 1\1\GINC-ROMEO158\Freq\UM06\6-311G(d,p)\H2N3(2)\ROOT\29-Apr-2014\0\\#P
  M06 6-311G** FREQ # GFINPUT IOP(6/7=3) POP=FULL\\RC, from TS reverse 
 9\\0,2\N,-0.102009,-0.056523,0.096817\N,-0.238877,-0.02669,1.21801\N,0
 .280619,-0.022536,-1.075615\H,-0.50518,-0.022396,-1.724419\H,1.342562,
 1.491725,-1.599285\\Version=AM64L-G09RevA.02\State=2-A\HF=-165.2244875
 \S2=0.755212\S2-1=0.\S2A=0.750003\RMSD=4.764e-09\RMSF=2.431e-03\ZeroPo
 int=0.0224967\Thermal=0.026826\Dipole=-0.6701015,-0.170324,-0.4447092\
 DipoleDeriv=0.0851769,-0.0945851,-0.3416676,-0.1360512,0.0921965,0.105
 1311,-0.6137348,-0.2328922,2.0165176,-0.1299745,0.0124844,0.0602848,0.
 0594583,-0.0812159,-0.0638387,0.4188949,0.2383465,-1.0155917,-0.110798
 3,0.0011911,0.4050206,0.0263153,-0.3943748,-0.0284155,0.1967472,0.0274
 521,-1.3100962,0.1509056,-0.0105954,-0.0764346,-0.0110944,0.3391835,0.
 0214971,0.0423749,0.0288932,0.339057,0.0046903,0.0915051,-0.0472032,0.
 061372,0.0442106,-0.034374,-0.0442823,-0.0617995,-0.0298867\Polar=18.2
 022276,6.1622909,17.1195278,-8.6734006,-5.9717161,42.5986326\PG=C01 [X
 (H2N3)]\NImag=1\\0.18100229,-0.00532917,0.12770723,-0.22599955,0.01484
 876,1.75596479,-0.07414745,0.00536732,0.11486765,0.05300595,0.00749020
 ,-0.06722735,-0.03067877,-0.00435505,0.03656459,0.13695848,-0.01830483
 ,-1.14880597,-0.15669932,0.02414710,1.21778643,-0.10729566,0.00649525,
 0.07660576,0.02173393,-0.00653718,0.00894826,0.35070851,0.00206158,-0.
 04091954,0.01680085,-0.00316920,0.02004485,-0.01331382,0.00191224,0.01
 789965,0.11375934,-0.00210694,-0.54461861,0.04082408,0.00785594,-0.078
 61896,0.08593146,-0.00470210,0.79539831,0.00432552,0.00004615,0.033757
 79,-0.00170597,0.00004927,0.00574585,-0.26764354,-0.00390812,-0.234478
 07,0.26440610,0.00202749,-0.01265761,0.00046374,-0.00031221,0.00661537
 ,-0.00070731,-0.00299948,0.00096957,0.00476849,0.00167820,0.00399608,-
 0.02854282,0.00017683,-0.06266134,0.00207524,0.00042726,0.01124711,-0.
 16928812,0.00302411,-0.17188248,0.19563610,-0.00286456,0.22236685,-0.0
 0388470,-0.00657955,0.00076835,0.00111354,0.00335276,0.00504671,0.0024
 9676,0.00310351,-0.00603681,0.00061789,-0.00039399,0.00011961,-0.00034
 349,-0.00625010,-0.00690272,-0.00143458,0.00246914,0.00400255,0.008178
 86,0.00112918,0.00200547,-0.00581539,0.00213451,0.00107659,-0.00076364
 ,0.00051727,-0.00018189,0.00382455,0.00538617,0.00012114,-0.00106765,-
 0.00175154,-0.00160860,-0.00219736,-0.00180904,-0.00027826,-0.00066167
 ,-0.00166035,0.00092985,0.00010214,-0.00016525,0.00083588\\-0.00269503
 ,-0.00310271,-0.00083253,0.00179412,0.00170833,0.00031025,0.00314702,0
 .00529076,-0.00060184,0.00052006,0.00013826,-0.00036951,-0.00276617,-0
 .00403464,0.00149363\\\@


 AND THIS OUR LIFE, EXEMPT FROM PUBLIC HAUNT,
 FINDS TONGUES IN TREES, BOOKS IN THE RUNNING BROOKS,
 SERMONS IN STONES, AND GOOD IN EVERYTHING.
 I WOULD NOT CHANGE IT. -- W. SHAKESPEARE
 AS YOU LIKE IT, ACT II, SCENE 1.
 Job cpu time:  0 days  0 hours  1 minutes 49.8 seconds.
 File lengths (MBytes):  RWF=      9 Int=      0 D2E=      0 Chk=      1 Scr=      1
 Normal termination of Gaussian 09 at Tue Apr 29 14:53:57 2014.
************
total 320
drwxrwxr-x 2 henon henon   4096 29 avril 14:53 .
drwxrwxr-x 3 henon henon   4096 29 avril 14:53 ..
-rw-r--r-- 1 henon henon    377 29 avril 14:53 9Rfreq.inp
-rw-rw-r-- 1 henon henon 311389 29 avril 14:53 9Rfreq.out
Run on 12 cores
romeo158
************
