total 12
drwxrwxr-x 2 henon henon 4096 14 avril 13:06 .
drwxrwxr-x 3 henon henon 4096 14 avril 13:06 ..
-rw-r--r-- 1 henon henon  268 14 avril 13:06 rev3.inp
-rw-rw-r-- 1 henon henon    0 14 avril 13:06 rev3.out
 Entering Gaussian System, Link 0=g09
 Initial command:
 /home/projets/algogen/g09.D01/g09/l1.exe "/scratch_l/henon/rev3_27481/Gau-27499.inp" -scrdir="/scratch_l/henon/rev3_27481/"
 Entering Link 1 = /home/projets/algogen/g09.D01/g09/l1.exe PID=     27500.
  
 Copyright (c) 1988,1990,1992,1993,1995,1998,2003,2009,2013,
            Gaussian, Inc.  All Rights Reserved.
  
 This is part of the Gaussian(R) 09 program.  It is based on
 the Gaussian(R) 03 system (copyright 2003, Gaussian, Inc.),
 the Gaussian(R) 98 system (copyright 1998, Gaussian, Inc.),
 the Gaussian(R) 94 system (copyright 1995, Gaussian, Inc.),
 the Gaussian 92(TM) system (copyright 1992, Gaussian, Inc.),
 the Gaussian 90(TM) system (copyright 1990, Gaussian, Inc.),
 the Gaussian 88(TM) system (copyright 1988, Gaussian, Inc.),
 the Gaussian 86(TM) system (copyright 1986, Carnegie Mellon
 University), and the Gaussian 82(TM) system (copyright 1983,
 Carnegie Mellon University). Gaussian is a federally registered
 trademark of Gaussian, Inc.
  
 This software contains proprietary and confidential information,
 including trade secrets, belonging to Gaussian, Inc.
  
 This software is provided under written license and may be
 used, copied, transmitted, or stored only in accord with that
 written license.
  
 The following legend is applicable only to US Government
 contracts under FAR:
  
                    RESTRICTED RIGHTS LEGEND
  
 Use, reproduction and disclosure by the US Government is
 subject to restrictions as set forth in subparagraphs (a)
 and (c) of the Commercial Computer Software - Restricted
 Rights clause in FAR 52.227-19.
  
 Gaussian, Inc.
 340 Quinnipiac St., Bldg. 40, Wallingford CT 06492
  
  
 ---------------------------------------------------------------
 Warning -- This program may not be used in any manner that
 competes with the business of Gaussian, Inc. or will provide
 assistance to any competitor of Gaussian, Inc.  The licensee
 of this program is prohibited from giving any competitor of
 Gaussian, Inc. access to this program.  By using this program,
 the user acknowledges that Gaussian, Inc. is engaged in the
 business of creating and licensing software in the field of
 computational chemistry and represents and warrants to the
 licensee that it is not a competitor of Gaussian, Inc. and that
 it will not use this program in any manner prohibited above.
 ---------------------------------------------------------------
  

 Cite this work as:
 Gaussian 09, Revision D.01,
 M. J. Frisch, G. W. Trucks, H. B. Schlegel, G. E. Scuseria, 
 M. A. Robb, J. R. Cheeseman, G. Scalmani, V. Barone, B. Mennucci, 
 G. A. Petersson, H. Nakatsuji, M. Caricato, X. Li, H. P. Hratchian, 
 A. F. Izmaylov, J. Bloino, G. Zheng, J. L. Sonnenberg, M. Hada, 
 M. Ehara, K. Toyota, R. Fukuda, J. Hasegawa, M. Ishida, T. Nakajima, 
 Y. Honda, O. Kitao, H. Nakai, T. Vreven, J. A. Montgomery, Jr., 
 J. E. Peralta, F. Ogliaro, M. Bearpark, J. J. Heyd, E. Brothers, 
 K. N. Kudin, V. N. Staroverov, T. Keith, R. Kobayashi, J. Normand, 
 K. Raghavachari, A. Rendell, J. C. Burant, S. S. Iyengar, J. Tomasi, 
 M. Cossi, N. Rega, J. M. Millam, M. Klene, J. E. Knox, J. B. Cross, 
 V. Bakken, C. Adamo, J. Jaramillo, R. Gomperts, R. E. Stratmann, 
 O. Yazyev, A. J. Austin, R. Cammi, C. Pomelli, J. W. Ochterski, 
 R. L. Martin, K. Morokuma, V. G. Zakrzewski, G. A. Voth, 
 P. Salvador, J. J. Dannenberg, S. Dapprich, A. D. Daniels, 
 O. Farkas, J. B. Foresman, J. V. Ortiz, J. Cioslowski, 
 and D. J. Fox, Gaussian, Inc., Wallingford CT, 2013.
 
 ******************************************
 Gaussian 09:  ES64L-G09RevD.01 24-Apr-2013
                14-Apr-2016 
 ******************************************
 %NPROC=1
 Will use up to    1 processors via shared memory.
 %MEM=800MB
 ----------------------------------------------------
 #P B3LYP 6-311G** FREQ # POP=full GFINPUT IOP(6/7=3)
 ----------------------------------------------------
 1/10=4,30=1,38=1/1,3;
 2/12=2,17=6,18=5,40=1/2;
 3/5=4,6=6,7=101,11=2,16=1,24=10,25=1,30=1,71=2,74=-5,140=1/1,2,3;
 4//1;
 5/5=2,38=5,98=1/2;
 8/6=4,10=90,11=11/1;
 11/6=1,8=1,9=11,15=111,16=1/1,2,10;
 10/6=1/2;
 6/7=3,18=1,28=1/1;
 7/8=1,10=1,25=1/1,2,3,16;
 1/10=4,30=1/3;
 99//99;
 Leave Link    1 at Thu Apr 14 13:06:36 2016, MaxMem=   104857600 cpu:         0.0
 (Enter /home/projets/algogen/g09.D01/g09/l101.exe)
 ---------------
 point 3 reverse
 ---------------
 Symbolic Z-matrix:
 Charge =  0 Multiplicity = 1
 6                    -0.03536   0.       -0.62233 
 7                    -0.04893   0.        0.55833 
 1                     1.10084   0.       -0.3476 
 
 NAtoms=      3 NQM=        3 NQMF=       0 NMMI=      0 NMMIF=      0
                NMic=       0 NMicF=      0.
                    Isotopes and Nuclear Properties:
 (Nuclear quadrupole moments (NQMom) in fm**2, nuclear magnetic moments (NMagM)
  in nuclear magnetons)

  Atom         1           2           3
 IAtWgt=          12          14           1
 AtmWgt=  12.0000000  14.0030740   1.0078250
 NucSpn=           0           2           1
 AtZEff=   0.0000000   0.0000000   0.0000000
 NQMom=    0.0000000   2.0440000   0.0000000
 NMagM=    0.0000000   0.4037610   2.7928460
 AtZNuc=   6.0000000   7.0000000   1.0000000
 Leave Link  101 at Thu Apr 14 13:06:36 2016, MaxMem=   104857600 cpu:         0.1
 (Enter /home/projets/algogen/g09.D01/g09/l103.exe)

 GradGradGradGradGradGradGradGradGradGradGradGradGradGradGradGradGradGrad
 Berny optimization.
 Initialization pass.
 Trust Radius=3.00D-01 FncErr=1.00D-07 GrdErr=1.00D-07
 Number of steps in this run=      2 maximum allowed number of steps=      2.
 GradGradGradGradGradGradGradGradGradGradGradGradGradGradGradGradGradGrad

 Leave Link  103 at Thu Apr 14 13:06:36 2016, MaxMem=   104857600 cpu:         0.0
 (Enter /home/projets/algogen/g09.D01/g09/l202.exe)
                          Input orientation:                          
 ---------------------------------------------------------------------
 Center     Atomic      Atomic             Coordinates (Angstroms)
 Number     Number       Type             X           Y           Z
 ---------------------------------------------------------------------
      1          6           0       -0.035355    0.000000   -0.622332
      2          7           0       -0.048932    0.000000    0.558327
      3          1           0        1.100842    0.000000   -0.347602
 ---------------------------------------------------------------------
                    Distance matrix (angstroms):
                    1          2          3
     1  C    0.000000
     2  N    1.180737   0.000000
     3  H    1.168940   1.463792   0.000000
 Stoichiometry    CHN
 Framework group  CS[SG(CHN)]
 Deg. of freedom     3
 Full point group                 CS      NOp   2
 Largest Abelian subgroup         CS      NOp   2
 Largest concise Abelian subgroup C1      NOp   1
                         Standard orientation:                         
 ---------------------------------------------------------------------
 Center     Atomic      Atomic             Coordinates (Angstroms)
 Number     Number       Type             X           Y           Z
 ---------------------------------------------------------------------
      1          6           0        0.081377    0.609058    0.000000
      2          7           0        0.081377   -0.571679    0.000000
      3          1           0       -1.057904    0.347411    0.000000
 ---------------------------------------------------------------------
 Rotational constants (GHZ):    408.3298259     55.1320961     48.5737407
 Leave Link  202 at Thu Apr 14 13:06:36 2016, MaxMem=   104857600 cpu:         0.0
 (Enter /home/projets/algogen/g09.D01/g09/l301.exe)
 Standard basis: 6-311G(d,p) (5D, 7F)
 Ernie: Thresh=  0.10000D-02 Tol=  0.10000D-05 Strict=F.
 AO basis set in the form of general basis input (Overlap normalization):
      1 0
 S   6 1.00       0.000000000000
      0.4563240000D+04  0.1966650249D-02
      0.6820240000D+03  0.1523060193D-01
      0.1549730000D+03  0.7612690966D-01
      0.4445530000D+02  0.2608010331D+00
      0.1302900000D+02  0.6164620782D+00
      0.1827730000D+01  0.2210060280D+00
 SP   3 1.00       0.000000000000
      0.2096420000D+02  0.1146600807D+00  0.4024869267D-01
      0.4803310000D+01  0.9199996477D+00  0.2375939567D+00
      0.1459330000D+01 -0.3030682134D-02  0.8158538515D+00
 SP   1 1.00       0.000000000000
      0.4834560000D+00  0.1000000000D+01  0.1000000000D+01
 SP   1 1.00       0.000000000000
      0.1455850000D+00  0.1000000000D+01  0.1000000000D+01
 D   1 1.00       0.000000000000
      0.6260000000D+00  0.1000000000D+01
 ****
      2 0
 S   6 1.00       0.000000000000
      0.6293480000D+04  0.1969788147D-02
      0.9490440000D+03  0.1496128592D-01
      0.2187760000D+03  0.7350053084D-01
      0.6369160000D+02  0.2489367658D+00
      0.1882820000D+02  0.6024594331D+00
      0.2720230000D+01  0.2562017589D+00
 SP   3 1.00       0.000000000000
      0.3063310000D+02  0.1119060795D+00  0.3831191864D-01
      0.7026140000D+01  0.9216666549D+00  0.2374031155D+00
      0.2112050000D+01 -0.2569191826D-02  0.8175923978D+00
 SP   1 1.00       0.000000000000
      0.6840090000D+00  0.1000000000D+01  0.1000000000D+01
 SP   1 1.00       0.000000000000
      0.2008780000D+00  0.1000000000D+01  0.1000000000D+01
 D   1 1.00       0.000000000000
      0.9130000000D+00  0.1000000000D+01
 ****
      3 0
 S   3 1.00       0.000000000000
      0.3386500000D+02  0.2549381454D-01
      0.5094790000D+01  0.1903731086D+00
      0.1158790000D+01  0.8521614860D+00
 S   1 1.00       0.000000000000
      0.3258400000D+00  0.1000000000D+01
 S   1 1.00       0.000000000000
      0.1027410000D+00  0.1000000000D+01
 P   1 1.00       0.000000000000
      0.7500000000D+00  0.1000000000D+01
 ****

 There are    33 symmetry adapted cartesian basis functions of A'  symmetry.
 There are    11 symmetry adapted cartesian basis functions of A"  symmetry.
 There are    31 symmetry adapted basis functions of A'  symmetry.
 There are    11 symmetry adapted basis functions of A"  symmetry.
    42 basis functions,    72 primitive gaussians,    44 cartesian basis functions
     7 alpha electrons        7 beta electrons
       nuclear repulsion energy        24.0701320763 Hartrees.
 IExCor=  402 DFT=T Ex+Corr=B3LYP ExCW=0 ScaHFX=  0.200000
 ScaDFX=  0.800000  0.720000  1.000000  0.810000 ScalE2=  1.000000  1.000000
 IRadAn=      0 IRanWt=     -1 IRanGd=            0 ICorTp=0 IEmpDi=  4
 NAtoms=    3 NActive=    3 NUniq=    3 SFac= 1.00D+00 NAtFMM=   60 NAOKFM=F Big=F
 Integral buffers will be    131072 words long.
 Raffenetti 2 integral format.
 Two-electron integral symmetry is turned on.
 Leave Link  301 at Thu Apr 14 13:06:36 2016, MaxMem=   104857600 cpu:         0.0
 (Enter /home/projets/algogen/g09.D01/g09/l302.exe)
 NPDir=0 NMtPBC=     1 NCelOv=     1 NCel=       1 NClECP=     1 NCelD=      1
         NCelK=      1 NCelE2=     1 NClLst=     1 CellRange=     0.0.
 One-electron integrals computed using PRISM.
 NBasis=    42 RedAO= T EigKep=  8.57D-03  NBF=    31    11
 NBsUse=    42 1.00D-06 EigRej= -1.00D+00 NBFU=    31    11
 Precomputing XC quadrature grid using
 IXCGrd= 4 IRadAn=           0 IRanWt=          -1 IRanGd=           0 AccXCQ= 0.00D+00.
 Generated NRdTot=       0 NPtTot=           0 NUsed=           0 NTot=          32
 NSgBfM=    44    44    44    44    44 MxSgAt=     3 MxSgA2=     3.
 Leave Link  302 at Thu Apr 14 13:06:37 2016, MaxMem=   104857600 cpu:         0.1
 (Enter /home/projets/algogen/g09.D01/g09/l303.exe)
 DipDrv:  MaxL=1.
 Leave Link  303 at Thu Apr 14 13:06:37 2016, MaxMem=   104857600 cpu:         0.0
 (Enter /home/projets/algogen/g09.D01/g09/l401.exe)
 ExpMin= 1.03D-01 ExpMax= 6.29D+03 ExpMxC= 9.49D+02 IAcc=1 IRadAn=         1 AccDes= 0.00D+00
 Harris functional with IExCor=  402 and IRadAn=       1 diagonalized for initial guess.
 HarFok:  IExCor=  402 AccDes= 0.00D+00 IRadAn=         1 IDoV= 1 UseB2=F ITyADJ=14
 ICtDFT=  3500011 ScaDFX=  1.000000  1.000000  1.000000  1.000000
 FoFCou: FMM=F IPFlag=           0 FMFlag=      100000 FMFlg1=           0
         NFxFlg=           0 DoJE=T BraDBF=F KetDBF=T FulRan=T
         wScrn=  0.000000 ICntrl=     500 IOpCl=  0 I1Cent=   200000004 NGrid=           0
         NMat0=    1 NMatS0=      1 NMatT0=    0 NMatD0=    1 NMtDS0=    0 NMtDT0=    0
 Petite list used in FoFCou.
 Harris En= -93.3738225253671    
 JPrj=0 DoOrth=F DoCkMO=F.
 Initial guess orbital symmetries:
       Occupied  (A') (A') (A') (A') (A') (A") (A')
       Virtual   (A') (A") (A') (A') (A') (A") (A') (A') (A') (A')
                 (A") (A') (A') (A") (A') (A") (A') (A') (A") (A')
                 (A") (A') (A') (A') (A") (A') (A") (A') (A') (A')
                 (A") (A') (A') (A') (A')
 The electronic state of the initial guess is 1-A'.
 Leave Link  401 at Thu Apr 14 13:06:37 2016, MaxMem=   104857600 cpu:         0.1
 (Enter /home/projets/algogen/g09.D01/g09/l502.exe)
 Closed shell SCF:
 Using DIIS extrapolation, IDIIS=  1040.
 Integral symmetry usage will be decided dynamically.
 Keep R1 ints in memory in symmetry-blocked form, NReq=1300126.
 IVT=       24966 IEndB=       24966 NGot=   104857600 MDV=   104613769
 LenX=   104613769 LenY=   104611392
 Requested convergence on RMS density matrix=1.00D-08 within 128 cycles.
 Requested convergence on MAX density matrix=1.00D-06.
 Requested convergence on             energy=1.00D-06.
 No special actions if energy rises.
 FoFCou: FMM=F IPFlag=           0 FMFlag=           0 FMFlg1=           0
         NFxFlg=           0 DoJE=F BraDBF=F KetDBF=F FulRan=T
         wScrn=  0.000000 ICntrl=     600 IOpCl=  0 I1Cent=           0 NGrid=           0
         NMat0=    1 NMatS0=    903 NMatT0=    0 NMatD0=    1 NMtDS0=    0 NMtDT0=    0
 Petite list used in FoFCou.
 Integral accuracy reduced to 1.0D-05 until final iterations.

 Cycle   1  Pass 0  IDiag  1:
 E= -93.3494299331668    
 DIIS: error= 2.46D-02 at cycle   1 NSaved=   1.
 NSaved= 1 IEnMin= 1 EnMin= -93.3494299331668     IErMin= 1 ErrMin= 2.46D-02
 ErrMax= 2.46D-02  0.00D+00 EMaxC= 1.00D-01 BMatC= 3.16D-02 BMatP= 3.16D-02
 IDIUse=3 WtCom= 7.54D-01 WtEn= 2.46D-01
 Coeff-Com:  0.100D+01
 Coeff-En:   0.100D+01
 Coeff:      0.100D+01
 Gap=     0.262 Goal=   None    Shift=    0.000
 GapD=    0.262 DampG=1.000 DampE=0.500 DampFc=0.5000 IDamp=-1.
 Damping current iteration by 5.00D-01
 RMSDP=5.65D-03 MaxDP=8.41D-02              OVMax= 1.04D-01

 Cycle   2  Pass 0  IDiag  1:
 E= -93.3633333355740     Delta-E=       -0.013903402407 Rises=F Damp=T
 DIIS: error= 4.59D-03 at cycle   2 NSaved=   2.
 NSaved= 2 IEnMin= 2 EnMin= -93.3633333355740     IErMin= 2 ErrMin= 4.59D-03
 ErrMax= 4.59D-03  0.00D+00 EMaxC= 1.00D-01 BMatC= 1.63D-03 BMatP= 3.16D-02
 IDIUse=3 WtCom= 9.54D-01 WtEn= 4.59D-02
 Coeff-Com: -0.146D+00 0.115D+01
 Coeff-En:   0.000D+00 0.100D+01
 Coeff:     -0.140D+00 0.114D+01
 Gap=     0.273 Goal=   None    Shift=    0.000
 RMSDP=7.33D-04 MaxDP=5.76D-03 DE=-1.39D-02 OVMax= 5.29D-02

 Cycle   3  Pass 0  IDiag  1:
 E= -93.3759541747222     Delta-E=       -0.012620839148 Rises=F Damp=F
 DIIS: error= 2.59D-03 at cycle   3 NSaved=   3.
 NSaved= 3 IEnMin= 3 EnMin= -93.3759541747222     IErMin= 3 ErrMin= 2.59D-03
 ErrMax= 2.59D-03  0.00D+00 EMaxC= 1.00D-01 BMatC= 2.38D-04 BMatP= 1.63D-03
 IDIUse=3 WtCom= 9.74D-01 WtEn= 2.59D-02
 Coeff-Com: -0.809D-01 0.270D+00 0.811D+00
 Coeff-En:   0.000D+00 0.000D+00 0.100D+01
 Coeff:     -0.788D-01 0.263D+00 0.816D+00
 Gap=     0.272 Goal=   None    Shift=    0.000
 RMSDP=3.66D-04 MaxDP=3.91D-03 DE=-1.26D-02 OVMax= 9.48D-03

 Cycle   4  Pass 0  IDiag  1:
 E= -93.3759225824151     Delta-E=        0.000031592307 Rises=F Damp=F
 DIIS: error= 4.32D-03 at cycle   4 NSaved=   4.
 NSaved= 4 IEnMin= 3 EnMin= -93.3759541747222     IErMin= 3 ErrMin= 2.59D-03
 ErrMax= 4.32D-03  0.00D+00 EMaxC= 1.00D-01 BMatC= 2.93D-04 BMatP= 2.38D-04
 IDIUse=3 WtCom= 1.32D-01 WtEn= 8.68D-01
 Coeff-Com: -0.472D-01 0.115D+00 0.582D+00 0.351D+00
 Coeff-En:   0.000D+00 0.000D+00 0.531D+00 0.469D+00
 Coeff:     -0.624D-02 0.151D-01 0.538D+00 0.453D+00
 Gap=     0.269 Goal=   None    Shift=    0.000
 RMSDP=3.23D-04 MaxDP=4.35D-03 DE= 3.16D-05 OVMax= 8.39D-03

 Cycle   5  Pass 0  IDiag  1:
 E= -93.3761096507847     Delta-E=       -0.000187068370 Rises=F Damp=F
 DIIS: error= 1.57D-03 at cycle   5 NSaved=   5.
 NSaved= 5 IEnMin= 5 EnMin= -93.3761096507847     IErMin= 5 ErrMin= 1.57D-03
 ErrMax= 1.57D-03  0.00D+00 EMaxC= 1.00D-01 BMatC= 7.13D-05 BMatP= 2.38D-04
 IDIUse=3 WtCom= 9.84D-01 WtEn= 1.57D-02
 Coeff-Com: -0.457D-02 0.629D-02 0.238D+00 0.316D+00 0.444D+00
 Coeff-En:   0.000D+00 0.000D+00 0.000D+00 0.251D+00 0.749D+00
 Coeff:     -0.450D-02 0.619D-02 0.235D+00 0.315D+00 0.449D+00
 Gap=     0.270 Goal=   None    Shift=    0.000
 RMSDP=1.46D-04 MaxDP=1.96D-03 DE=-1.87D-04 OVMax= 3.01D-03

 Cycle   6  Pass 0  IDiag  1:
 E= -93.3761794224489     Delta-E=       -0.000069771664 Rises=F Damp=F
 DIIS: error= 4.06D-05 at cycle   6 NSaved=   6.
 NSaved= 6 IEnMin= 6 EnMin= -93.3761794224489     IErMin= 6 ErrMin= 4.06D-05
 ErrMax= 4.06D-05  0.00D+00 EMaxC= 1.00D-01 BMatC= 5.82D-08 BMatP= 7.13D-05
 IDIUse=1 WtCom= 1.00D+00 WtEn= 0.00D+00
 Coeff-Com:  0.211D-02-0.471D-02-0.573D-02 0.180D-01 0.582D-01 0.932D+00
 Coeff:      0.211D-02-0.471D-02-0.573D-02 0.180D-01 0.582D-01 0.932D+00
 Gap=     0.270 Goal=   None    Shift=    0.000
 RMSDP=5.94D-06 MaxDP=1.05D-04 DE=-6.98D-05 OVMax= 1.12D-04

 Initial convergence to 1.0D-05 achieved.  Increase integral accuracy.
 Cycle   7  Pass 1  IDiag  1:
 E= -93.3761764457751     Delta-E=        0.000002976674 Rises=F Damp=F
 DIIS: error= 7.48D-06 at cycle   1 NSaved=   1.
 NSaved= 1 IEnMin= 1 EnMin= -93.3761764457751     IErMin= 1 ErrMin= 7.48D-06
 ErrMax= 7.48D-06  0.00D+00 EMaxC= 1.00D-01 BMatC= 1.65D-09 BMatP= 1.65D-09
 IDIUse=1 WtCom= 1.00D+00 WtEn= 0.00D+00
 Coeff-Com:  0.100D+01
 Coeff:      0.100D+01
 Gap=     0.270 Goal=   None    Shift=    0.000
 RMSDP=5.94D-06 MaxDP=1.05D-04 DE= 2.98D-06 OVMax= 4.02D-05

 Cycle   8  Pass 1  IDiag  1:
 E= -93.3761764450561     Delta-E=        0.000000000719 Rises=F Damp=F
 DIIS: error= 1.19D-05 at cycle   2 NSaved=   2.
 NSaved= 2 IEnMin= 1 EnMin= -93.3761764457751     IErMin= 1 ErrMin= 7.48D-06
 ErrMax= 1.19D-05  0.00D+00 EMaxC= 1.00D-01 BMatC= 2.69D-09 BMatP= 1.65D-09
 IDIUse=1 WtCom= 1.00D+00 WtEn= 0.00D+00
 Coeff-Com:  0.577D+00 0.423D+00
 Coeff:      0.577D+00 0.423D+00
 Gap=     0.270 Goal=   None    Shift=    0.000
 RMSDP=9.10D-07 MaxDP=9.24D-06 DE= 7.19D-10 OVMax= 2.43D-05

 Cycle   9  Pass 1  IDiag  1:
 E= -93.3761764467641     Delta-E=       -0.000000001708 Rises=F Damp=F
 DIIS: error= 6.85D-06 at cycle   3 NSaved=   3.
 NSaved= 3 IEnMin= 3 EnMin= -93.3761764467641     IErMin= 3 ErrMin= 6.85D-06
 ErrMax= 6.85D-06  0.00D+00 EMaxC= 1.00D-01 BMatC= 6.86D-10 BMatP= 1.65D-09
 IDIUse=1 WtCom= 1.00D+00 WtEn= 0.00D+00
 Coeff-Com:  0.813D-01 0.327D+00 0.592D+00
 Coeff:      0.813D-01 0.327D+00 0.592D+00
 Gap=     0.270 Goal=   None    Shift=    0.000
 RMSDP=3.47D-07 MaxDP=3.47D-06 DE=-1.71D-09 OVMax= 1.07D-05

 Cycle  10  Pass 1  IDiag  1:
 E= -93.3761764473676     Delta-E=       -0.000000000603 Rises=F Damp=F
 DIIS: error= 1.91D-07 at cycle   4 NSaved=   4.
 NSaved= 4 IEnMin= 4 EnMin= -93.3761764473676     IErMin= 4 ErrMin= 1.91D-07
 ErrMax= 1.91D-07  0.00D+00 EMaxC= 1.00D-01 BMatC= 2.69D-12 BMatP= 6.86D-10
 IDIUse=1 WtCom= 1.00D+00 WtEn= 0.00D+00
 Coeff-Com: -0.136D-01 0.279D-01 0.974D-01 0.888D+00
 Coeff:     -0.136D-01 0.279D-01 0.974D-01 0.888D+00
 Gap=     0.270 Goal=   None    Shift=    0.000
 RMSDP=5.49D-08 MaxDP=6.35D-07 DE=-6.03D-10 OVMax= 1.55D-06

 Cycle  11  Pass 1  IDiag  1:
 E= -93.3761764473710     Delta-E=       -0.000000000003 Rises=F Damp=F
 DIIS: error= 9.17D-08 at cycle   5 NSaved=   5.
 NSaved= 5 IEnMin= 5 EnMin= -93.3761764473710     IErMin= 5 ErrMin= 9.17D-08
 ErrMax= 9.17D-08  0.00D+00 EMaxC= 1.00D-01 BMatC= 3.45D-13 BMatP= 2.69D-12
 IDIUse=1 WtCom= 1.00D+00 WtEn= 0.00D+00
 Coeff-Com: -0.836D-02-0.349D-03 0.134D-01 0.339D+00 0.656D+00
 Coeff:     -0.836D-02-0.349D-03 0.134D-01 0.339D+00 0.656D+00
 Gap=     0.270 Goal=   None    Shift=    0.000
 RMSDP=1.42D-08 MaxDP=2.55D-07 DE=-3.41D-12 OVMax= 2.80D-07

 Cycle  12  Pass 1  IDiag  1:
 E= -93.3761764473717     Delta-E=       -0.000000000001 Rises=F Damp=F
 DIIS: error= 2.23D-08 at cycle   6 NSaved=   6.
 NSaved= 6 IEnMin= 6 EnMin= -93.3761764473717     IErMin= 6 ErrMin= 2.23D-08
 ErrMax= 2.23D-08  0.00D+00 EMaxC= 1.00D-01 BMatC= 1.16D-14 BMatP= 3.45D-13
 IDIUse=1 WtCom= 1.00D+00 WtEn= 0.00D+00
 Coeff-Com:  0.370D-03-0.379D-02-0.116D-01-0.546D-01 0.970D-01 0.973D+00
 Coeff:      0.370D-03-0.379D-02-0.116D-01-0.546D-01 0.970D-01 0.973D+00
 Gap=     0.270 Goal=   None    Shift=    0.000
 RMSDP=3.55D-09 MaxDP=4.46D-08 DE=-7.39D-13 OVMax= 9.01D-08

 SCF Done:  E(RB3LYP) =  -93.3761764474     A.U. after   12 cycles
            NFock= 12  Conv=0.36D-08     -V/T= 2.0032
 KE= 9.307568706341D+01 PE=-2.659909361023D+02 EE= 5.546894051526D+01
 Leave Link  502 at Thu Apr 14 13:06:38 2016, MaxMem=   104857600 cpu:         0.7
 (Enter /home/projets/algogen/g09.D01/g09/l801.exe)
 DoSCS=F DFT=T ScalE2(SS,OS)=  1.000000  1.000000
 Range of M.O.s used for correlation:     1    42
 NBasis=    42 NAE=     7 NBE=     7 NFC=     0 NFV=     0
 NROrb=     42 NOA=     7 NOB=     7 NVA=    35 NVB=    35
 Leave Link  801 at Thu Apr 14 13:06:38 2016, MaxMem=   104857600 cpu:         0.0
 (Enter /home/projets/algogen/g09.D01/g09/l1101.exe)
 Using compressed storage, NAtomX=     3.
 Will process      4 centers per pass.
 Leave Link 1101 at Thu Apr 14 13:06:38 2016, MaxMem=   104857600 cpu:         0.1
 (Enter /home/projets/algogen/g09.D01/g09/l1102.exe)
 Symmetrizing basis deriv contribution to polar:
 IMax=3 JMax=2 DiffMx= 0.00D+00
 Leave Link 1102 at Thu Apr 14 13:06:38 2016, MaxMem=   104857600 cpu:         0.0
 (Enter /home/projets/algogen/g09.D01/g09/l1110.exe)
 Forming Gx(P) for the SCF density, NAtomX=     3.
 Integral derivatives from FoFJK, PRISM(SPDF).
 Do as many integral derivatives as possible in FoFJK.
 G2DrvN: MDV=     104857472.
 G2DrvN: will do     4 centers at a time, making    1 passes.
 Calling FoFCou, ICntrl=  3107 FMM=F I1Cent=   0 AccDes= 0.00D+00.
 FoFJK:  IHMeth= 1 ICntrl=    3107 DoSepK=F KAlg= 0 I1Cent=   0 FoldK=F
 IRaf=         0 NMat=   1 IRICut=       1 DoRegI=T DoRafI=F ISym2E= 1.
 FoFCou: FMM=F IPFlag=           0 FMFlag=      100000 FMFlg1=           0
         NFxFlg=           0 DoJE=F BraDBF=F KetDBF=F FulRan=T
         wScrn=  0.000000 ICntrl=    3107 IOpCl=  0 I1Cent=           0 NGrid=           0
         NMat0=    1 NMatS0=      1 NMatT0=    0 NMatD0=    1 NMtDS0=    0 NMtDT0=    0
 Petite list used in FoFCou.
 End of G2Drv F.D. properties file   721 does not exist.
 End of G2Drv F.D. properties file   722 does not exist.
 End of G2Drv F.D. properties file   788 does not exist.
 Leave Link 1110 at Thu Apr 14 13:06:39 2016, MaxMem=   104857600 cpu:         0.8
 (Enter /home/projets/algogen/g09.D01/g09/l1002.exe)
 Minotr:  Closed shell wavefunction.
          IDoAtm=111
          Direct CPHF calculation.
          Differentiating once with respect to electric field.
                with respect to dipole field.
          Differentiating once with respect to nuclear coordinates.
          Using symmetry in CPHF.
          Requested convergence is 1.0D-08 RMS, and 1.0D-07 maximum.
          Secondary convergence is 1.0D-12 RMS, and 1.0D-12 maximum.
          NewPWx=T KeepS1=F KeepF1=F KeepIn=T MapXYZ=F SortEE=F KeepMc=T.
          MDV=     104857524 using IRadAn=       2.
 Generate precomputed XC quadrature information.
 Keep R1 ints in memory in symmetry-blocked form, NReq=1274720.
 FoFCou: FMM=F IPFlag=           0 FMFlag=           0 FMFlg1=           0
         NFxFlg=           0 DoJE=F BraDBF=F KetDBF=F FulRan=T
         wScrn=  0.000000 ICntrl=     600 IOpCl=  0 I1Cent=           0 NGrid=           0
         NMat0=    1 NMatS0=    903 NMatT0=    0 NMatD0=    1 NMtDS0=    0 NMtDT0=    0
 Petite list used in FoFCou.
          Solving linear equations simultaneously, MaxMat=       0.
          There are    12 degrees of freedom in the 1st order CPHF.  IDoFFX=6 NUNeed=     3.
      9 vectors produced by pass  0 Test12= 2.04D-15 8.33D-09 XBig12= 2.27D+01 2.90D+00.
 AX will form     9 AO Fock derivatives at one time.
      9 vectors produced by pass  1 Test12= 2.04D-15 8.33D-09 XBig12= 1.15D+01 1.25D+00.
      9 vectors produced by pass  2 Test12= 2.04D-15 8.33D-09 XBig12= 7.58D-02 8.87D-02.
      9 vectors produced by pass  3 Test12= 2.04D-15 8.33D-09 XBig12= 1.55D-04 3.87D-03.
      9 vectors produced by pass  4 Test12= 2.04D-15 8.33D-09 XBig12= 1.96D-07 1.21D-04.
      8 vectors produced by pass  5 Test12= 2.04D-15 8.33D-09 XBig12= 3.13D-10 5.47D-06.
      3 vectors produced by pass  6 Test12= 2.04D-15 8.33D-09 XBig12= 3.01D-13 1.29D-07.
 InvSVY:  IOpt=1 It=  1 EMax= 8.88D-16
 Solved reduced A of dimension    56 with     9 vectors.
 FullF1:  Do perturbations    1 to     3.
 Isotropic polarizability for W=    0.000000       14.34 Bohr**3.
 End of Minotr F.D. properties file   721 does not exist.
 End of Minotr F.D. properties file   722 does not exist.
 End of Minotr F.D. properties file   788 does not exist.
 Leave Link 1002 at Thu Apr 14 13:06:40 2016, MaxMem=   104857600 cpu:         1.1
 (Enter /home/projets/algogen/g09.D01/g09/l601.exe)
 Copying SCF densities to generalized density rwf, IOpCl= 0 IROHF=0.

 **********************************************************************

            Population analysis using the SCF density.

 **********************************************************************

 Orbital symmetries:
       Occupied  (A') (A') (A') (A') (A') (A") (A')
       Virtual   (A') (A") (A') (A') (A') (A") (A') (A') (A') (A')
                 (A") (A') (A") (A') (A') (A") (A') (A') (A") (A')
                 (A") (A') (A') (A') (A") (A') (A") (A') (A') (A')
                 (A") (A') (A') (A') (A')
 The electronic state is 1-A'.
 Alpha  occ. eigenvalues --  -14.38353 -10.23194  -0.98829  -0.53619  -0.45011
 Alpha  occ. eigenvalues --   -0.39147  -0.34730
 Alpha virt. eigenvalues --   -0.07711   0.00118   0.04094   0.21693   0.30749
 Alpha virt. eigenvalues --    0.39579   0.40806   0.52776   0.55273   0.63307
 Alpha virt. eigenvalues --    0.64109   0.73723   1.00865   1.02389   1.21460
 Alpha virt. eigenvalues --    1.36067   1.43304   1.60795   1.74772   1.89129
 Alpha virt. eigenvalues --    2.00102   2.10937   2.24294   2.35382   2.43908
 Alpha virt. eigenvalues --    2.66301   2.74298   2.82153   2.97960   3.22392
 Alpha virt. eigenvalues --    3.72318   3.79461   4.31963  23.92120  35.54034
     Molecular Orbital Coefficients:
                           1         2         3         4         5
                           O         O         O         O         O
     Eigenvalues --   -14.38353 -10.23194  -0.98829  -0.53619  -0.45011
   1 1   C  1S         -0.00007   0.56274  -0.07780   0.04099   0.06547
   2        2S          0.00060   0.46346  -0.11777   0.06564   0.10413
   3        2PX         0.00006  -0.00004  -0.01742   0.13317  -0.09316
   4        2PY        -0.00042  -0.00069  -0.10606  -0.05657   0.02751
   5        2PZ         0.00000   0.00000   0.00000   0.00000   0.00000
   6        3S         -0.00188   0.01813   0.29990  -0.18700  -0.30251
   7        3PX        -0.00031  -0.00254  -0.02436   0.19153  -0.13351
   8        3PY         0.00383  -0.00662  -0.12142  -0.07267   0.04093
   9        3PZ         0.00000   0.00000   0.00000   0.00000   0.00000
  10        4S          0.00339   0.00062   0.05557  -0.15763  -0.26882
  11        4PX         0.00010   0.00052  -0.00409   0.09379  -0.05312
  12        4PY        -0.00265  -0.00162   0.00218  -0.03895  -0.01571
  13        4PZ         0.00000   0.00000   0.00000   0.00000   0.00000
  14        5D 0        0.00116  -0.00257  -0.01499   0.00376   0.00068
  15        5D+1        0.00000   0.00000   0.00000   0.00000   0.00000
  16        5D-1        0.00000   0.00000   0.00000   0.00000   0.00000
  17        5D+2        0.00222  -0.00211  -0.01622  -0.02458   0.00834
  18        5D-2       -0.00006   0.00070   0.00697  -0.02493   0.02016
  19 2   N  1S          0.55725  -0.00026  -0.09787  -0.06178  -0.05227
  20        2S          0.46597   0.00020  -0.15390  -0.09893  -0.08399
  21        2PX        -0.00012   0.00003  -0.01062   0.10734  -0.11146
  22        2PY         0.00081   0.00086   0.09622  -0.04370  -0.17785
  23        2PZ         0.00000   0.00000   0.00000   0.00000   0.00000
  24        3S          0.01569  -0.00244   0.42075   0.28737   0.24347
  25        3PX        -0.00004   0.00003  -0.01782   0.15944  -0.16845
  26        3PY         0.00361  -0.00515   0.12937  -0.05928  -0.23931
  27        3PZ         0.00000   0.00000   0.00000   0.00000   0.00000
  28        4S         -0.00798  -0.00682   0.26729   0.31042   0.35953
  29        4PX         0.00021   0.00000  -0.00853   0.09400  -0.13172
  30        4PY        -0.00233  -0.00270   0.05200  -0.04241  -0.16882
  31        4PZ         0.00000   0.00000   0.00000   0.00000   0.00000
  32        5D 0       -0.00068   0.00107  -0.01346   0.00331   0.00612
  33        5D+1        0.00000   0.00000   0.00000   0.00000   0.00000
  34        5D-1        0.00000   0.00000   0.00000   0.00000   0.00000
  35        5D+2       -0.00129   0.00211  -0.01622  -0.00050   0.02104
  36        5D-2        0.00003   0.00015  -0.00443   0.02009  -0.01718
  37 3   H  1S          0.00029  -0.00001   0.06454  -0.15698   0.05285
  38        2S         -0.00054  -0.00292   0.06946  -0.24642   0.09921
  39        3S          0.00063   0.00190  -0.00397  -0.05071   0.07587
  40        4PX        -0.00013  -0.00237   0.01583  -0.02218   0.00431
  41        4PY        -0.00051  -0.00038  -0.00541  -0.00230  -0.01472
  42        4PZ         0.00000   0.00000   0.00000   0.00000   0.00000
                           6         7         8         9        10
                           O         O         V         V         V
     Eigenvalues --    -0.39147  -0.34730  -0.07711   0.00118   0.04094
   1 1   C  1S          0.00000  -0.04810   0.03032   0.00000   0.02733
   2        2S          0.00000  -0.07790   0.04837   0.00000   0.04316
   3        2PX         0.00000   0.04035  -0.10120   0.00000   0.18557
   4        2PY         0.00000   0.20932  -0.05220   0.00000  -0.03746
   5        2PZ         0.17113   0.00000   0.00000   0.22068   0.00000
   6        3S          0.00000   0.21096  -0.12879   0.00000  -0.10447
   7        3PX         0.00000   0.05153  -0.14896   0.00000   0.25217
   8        3PY         0.00000   0.27443  -0.07357   0.00000  -0.02910
   9        3PZ         0.25303   0.00000   0.00000   0.33175   0.00000
  10        4S          0.00000   0.47606  -0.36261   0.00000  -1.00185
  11        4PX         0.00000   0.04505  -0.21684   0.00000   0.82471
  12        4PY         0.00000   0.13612  -0.12796   0.00000  -0.02055
  13        4PZ         0.18404   0.00000   0.00000   0.66307   0.00000
  14        5D 0        0.00000   0.00927  -0.00927   0.00000   0.00457
  15        5D+1       -0.00860   0.00000   0.00000  -0.01188   0.00000
  16        5D-1       -0.04390   0.00000   0.00000   0.01942   0.00000
  17        5D+2        0.00000   0.02347   0.01688   0.00000   0.01518
  18        5D-2        0.00000  -0.02031  -0.02801   0.00000  -0.00488
  19 2   N  1S          0.00000  -0.00636   0.00636   0.00000   0.01908
  20        2S          0.00000  -0.00980   0.00989   0.00000   0.03106
  21        2PX         0.00000   0.07911   0.24809   0.00000  -0.03545
  22        2PY         0.00000  -0.17510  -0.00487   0.00000   0.01725
  23        2PZ         0.22744   0.00000   0.00000  -0.21126   0.00000
  24        3S          0.00000   0.02659  -0.02002   0.00000  -0.10368
  25        3PX         0.00000   0.11722   0.35278   0.00000  -0.04920
  26        3PY         0.00000  -0.23861  -0.01185   0.00000   0.03303
  27        3PZ         0.33369   0.00000   0.00000  -0.29083   0.00000
  28        4S          0.00000   0.04789  -0.14698   0.00000  -0.13647
  29        4PX         0.00000   0.11411   0.54777   0.00000  -0.14867
  30        4PY         0.00000  -0.21783  -0.02142   0.00000   0.10870
  31        4PZ         0.27472   0.00000   0.00000  -0.55394   0.00000
  32        5D 0        0.00000   0.01086  -0.00056   0.00000  -0.00555
  33        5D+1       -0.00386   0.00000   0.00000   0.00166   0.00000
  34        5D-1        0.03114   0.00000   0.00000   0.01389   0.00000
  35        5D+2        0.00000   0.01667   0.00340   0.00000   0.00931
  36        5D-2        0.00000   0.01154   0.00155   0.00000   0.01696
  37 3   H  1S          0.00000   0.01678   0.12959   0.00000   0.05360
  38        2S          0.00000   0.01720   0.30864   0.00000   0.08902
  39        3S          0.00000   0.08044   0.38557   0.00000   1.65209
  40        4PX         0.00000  -0.00446   0.00196   0.00000  -0.03334
  41        4PY         0.00000   0.01911   0.02328   0.00000  -0.02059
  42        4PZ         0.02114   0.00000   0.00000   0.02047   0.00000
                          11        12        13        14        15
                           V         V         V         V         V
     Eigenvalues --     0.21693   0.30749   0.39579   0.40806   0.52776
   1 1   C  1S         -0.00879  -0.02568   0.00000   0.04257   0.04206
   2        2S         -0.01375  -0.04417   0.00000   0.07673   0.08390
   3        2PX         0.03319  -0.04919   0.00000  -0.19868  -0.06934
   4        2PY         0.00518   0.01288   0.00000  -0.07692   0.13615
   5        2PZ         0.00000   0.00000  -0.22919   0.00000   0.00000
   6        3S         -0.00737   0.03288   0.00000  -0.40334  -0.77888
   7        3PX         0.04764  -0.12246   0.00000  -0.72045  -0.33208
   8        3PY         0.01730  -0.04624   0.00000  -0.40453   0.47460
   9        3PZ         0.00000   0.00000  -0.84182   0.00000   0.00000
  10        4S          2.00948   3.09547   0.00000   0.75988  -0.94286
  11        4PX         0.40104  -0.92727   0.00000   1.04152   0.25926
  12        4PY        -1.54262  -2.14835   0.00000   0.13032  -0.01167
  13        4PZ         0.00000   0.00000   1.12935   0.00000   0.00000
  14        5D 0       -0.01029   0.00587   0.00000  -0.00967  -0.01421
  15        5D+1        0.00000   0.00000   0.00305   0.00000   0.00000
  16        5D-1        0.00000   0.00000   0.04821   0.00000   0.00000
  17        5D+2        0.01240  -0.01813   0.00000  -0.04003  -0.01375
  18        5D-2        0.00870   0.01450   0.00000   0.03400   0.02579
  19 2   N  1S          0.03586   0.03104   0.00000   0.01509  -0.03930
  20        2S          0.05812   0.05034   0.00000   0.02700  -0.06468
  21        2PX        -0.01150  -0.02565   0.00000  -0.03750  -0.00661
  22        2PY        -0.06898   0.01074   0.00000   0.04797  -0.05538
  23        2PZ         0.00000   0.00000  -0.04210   0.00000   0.00000
  24        3S         -0.14026  -0.10280   0.00000  -0.09058   0.15347
  25        3PX        -0.00632  -0.02193   0.00000  -0.14934  -0.01191
  26        3PY        -0.09971   0.02517   0.00000   0.08098  -0.37438
  27        3PZ         0.00000   0.00000  -0.15072   0.00000   0.00000
  28        4S         -1.77205  -2.74326   0.00000  -0.58592   0.95455
  29        4PX        -0.15268   0.05295   0.00000   0.16574  -0.01330
  30        4PY        -0.79159  -1.04982   0.00000  -0.55183   1.83919
  31        4PZ         0.00000   0.00000   0.10099   0.00000   0.00000
  32        5D 0        0.00289   0.03689   0.00000   0.01871   0.03139
  33        5D+1        0.00000   0.00000   0.00054   0.00000   0.00000
  34        5D-1        0.00000   0.00000  -0.03682   0.00000   0.00000
  35        5D+2        0.02792   0.00305   0.00000   0.02655   0.04082
  36        5D-2       -0.00344   0.00939   0.00000  -0.03010  -0.00416
  37 3   H  1S          0.11145  -0.08862   0.00000  -0.04511  -0.02669
  38        2S          0.82252  -1.39937   0.00000  -0.14503  -0.45135
  39        3S         -1.13966   0.16710   0.00000   0.61868   0.40781
  40        4PX         0.02480  -0.03094   0.00000   0.03246  -0.06835
  41        4PY        -0.02007   0.00443   0.00000  -0.02237   0.00967
  42        4PZ         0.00000   0.00000  -0.01019   0.00000   0.00000
                          16        17        18        19        20
                           V         V         V         V         V
     Eigenvalues --     0.55273   0.63307   0.64109   0.73723   1.00865
   1 1   C  1S          0.08077  -0.01935   0.00000   0.06709   0.00000
   2        2S          0.15585  -0.03801   0.00000   0.13142   0.00000
   3        2PX         0.15869   0.06045   0.00000   0.03021   0.00000
   4        2PY        -0.09260   0.04460   0.00000   0.23821   0.00000
   5        2PZ         0.00000   0.00000   0.10081   0.00000  -0.05124
   6        3S         -1.27000   0.37081   0.00000  -0.80740   0.00000
   7        3PX         0.37877   0.17916   0.00000   0.05327   0.00000
   8        3PY        -0.62722   0.20632   0.00000   0.65772   0.00000
   9        3PZ         0.00000   0.00000   0.21526   0.00000  -0.06017
  10        4S          3.54167  -1.16098   0.00000   0.43437   0.00000
  11        4PX        -1.39056  -0.31794   0.00000  -0.27621   0.00000
  12        4PY        -0.44707   0.12581   0.00000  -0.11397   0.00000
  13        4PZ         0.00000   0.00000  -0.85098   0.00000  -0.07877
  14        5D 0       -0.04388  -0.00854   0.00000  -0.09226   0.00000
  15        5D+1        0.00000   0.00000  -0.01148   0.00000  -0.57748
  16        5D-1        0.00000   0.00000   0.06830   0.00000  -0.07487
  17        5D+2       -0.01190  -0.01938   0.00000  -0.12079   0.00000
  18        5D-2        0.03822   0.05048   0.00000   0.00254   0.00000
  19 2   N  1S          0.00794  -0.00906   0.00000   0.00940   0.00000
  20        2S          0.01753  -0.01909   0.00000   0.02557   0.00000
  21        2PX        -0.05835  -0.23160   0.00000   0.02429   0.00000
  22        2PY        -0.02717   0.01239   0.00000   0.28097   0.00000
  23        2PZ         0.00000   0.00000  -0.24567   0.00000  -0.00430
  24        3S         -0.08776   0.13780   0.00000  -0.34980   0.00000
  25        3PX        -0.14354  -0.81422   0.00000   0.05079   0.00000
  26        3PY        -0.24282   0.06310   0.00000   0.70072   0.00000
  27        3PZ         0.00000   0.00000  -0.81608   0.00000   0.02519
  28        4S         -1.27851   0.21725   0.00000   0.91757   0.00000
  29        4PX         0.24810   1.50857   0.00000  -0.03232   0.00000
  30        4PY        -0.43810   0.09503   0.00000  -0.16261   0.00000
  31        4PZ         0.00000   0.00000   1.48965   0.00000  -0.08564
  32        5D 0        0.04364  -0.01746   0.00000   0.03808   0.00000
  33        5D+1        0.00000   0.00000  -0.00284   0.00000  -0.16638
  34        5D-1        0.00000   0.00000  -0.01492   0.00000   0.02810
  35        5D+2        0.04907   0.00657   0.00000   0.09048   0.00000
  36        5D-2        0.02096  -0.02872   0.00000  -0.00735   0.00000
  37 3   H  1S          0.07044  -0.04799   0.00000   0.00373   0.00000
  38        2S         -0.19204   0.39572   0.00000   0.18482   0.00000
  39        3S         -1.56756   0.49169   0.00000  -0.63343   0.00000
  40        4PX        -0.13529   0.08609   0.00000  -0.06425   0.00000
  41        4PY        -0.02507  -0.03597   0.00000  -0.10477   0.00000
  42        4PZ         0.00000   0.00000   0.03136   0.00000   0.60022
                          21        22        23        24        25
                           V         V         V         V         V
     Eigenvalues --     1.02389   1.21460   1.36067   1.43304   1.60795
   1 1   C  1S         -0.02198   0.00630   0.00000   0.01888   0.01167
   2        2S         -0.02481   0.01823   0.00000   0.03725   0.02075
   3        2PX        -0.00061  -0.02630   0.00000   0.02665   0.06707
   4        2PY        -0.12682  -0.02576   0.00000   0.03074   0.06555
   5        2PZ         0.00000   0.00000   0.04984   0.00000   0.00000
   6        3S         -0.01867  -0.16351   0.00000  -0.30808  -0.11020
   7        3PX        -0.04594  -0.07622   0.00000   0.17789  -0.04778
   8        3PY         0.34794   0.20154   0.00000  -0.07718   0.15864
   9        3PZ         0.00000   0.00000   0.10171   0.00000   0.00000
  10        4S         -4.19666  -1.55082   0.00000   1.76049  -1.17499
  11        4PX        -0.04432   0.35030   0.00000  -0.65603   0.07217
  12        4PY         2.23219   0.70754   0.00000  -0.80666   0.45620
  13        4PZ         0.00000   0.00000  -0.19992   0.00000   0.00000
  14        5D 0        0.20704  -0.18894   0.00000  -0.72847   0.04179
  15        5D+1        0.00000   0.00000  -0.21148   0.00000   0.00000
  16        5D-1        0.00000   0.00000   0.88357   0.00000   0.00000
  17        5D+2        0.34462   0.25896   0.00000   0.36117   0.23457
  18        5D-2        0.08902  -0.58154   0.00000   0.12021   0.68096
  19 2   N  1S          0.10863   0.02321   0.00000  -0.01297  -0.00210
  20        2S          0.21378   0.05058   0.00000  -0.02806   0.00062
  21        2PX         0.00928  -0.10675   0.00000   0.05182  -0.00870
  22        2PY        -0.12555   0.02091   0.00000  -0.00162   0.06663
  23        2PZ         0.00000   0.00000   0.09192   0.00000   0.00000
  24        3S         -1.75021  -0.54128   0.00000   0.28542  -0.17433
  25        3PX        -0.02281  -0.17908   0.00000   0.06732   0.16418
  26        3PY         0.05719   0.11874   0.00000  -0.02550   0.19723
  27        3PZ         0.00000   0.00000   0.23500   0.00000   0.00000
  28        4S          5.62373   2.10968   0.00000  -1.55364   1.44876
  29        4PX         0.18295  -0.27737   0.00000  -0.02376  -0.16356
  30        4PY         2.06321   0.77959   0.00000  -0.44159   0.56043
  31        4PZ         0.00000   0.00000   0.14833   0.00000   0.00000
  32        5D 0       -0.06587   0.01662   0.00000  -0.15924   0.37919
  33        5D+1        0.00000   0.00000  -0.04261   0.00000   0.00000
  34        5D-1        0.00000   0.00000  -0.26991   0.00000   0.00000
  35        5D+2       -0.07495  -0.03643   0.00000   0.14727  -0.20375
  36        5D-2       -0.03304   0.21840   0.00000  -0.06714  -0.06328
  37 3   H  1S          0.08387  -0.02505   0.00000   0.26257   0.26421
  38        2S         -0.33970   0.02613   0.00000  -1.14781  -0.55129
  39        3S          0.42432   0.06912   0.00000   0.11938   0.32425
  40        4PX         0.04504  -0.08586   0.00000   0.38243  -0.11416
  41        4PY        -0.18375   0.51990   0.00000  -0.13213   0.72222
  42        4PZ         0.00000   0.00000  -0.07037   0.00000   0.00000
                          26        27        28        29        30
                           V         V         V         V         V
     Eigenvalues --     1.74772   1.89129   2.00102   2.10937   2.24294
   1 1   C  1S          0.00000   0.02963   0.00000   0.00877  -0.01719
   2        2S          0.00000   0.05061   0.00000   0.03475  -0.03709
   3        2PX         0.00000   0.03789   0.00000  -0.28250  -0.40372
   4        2PY         0.00000   0.38850   0.00000  -0.24715   0.17284
   5        2PZ        -0.09290   0.00000  -0.01094   0.00000   0.00000
   6        3S          0.00000  -0.02222   0.00000  -0.39713   0.23948
   7        3PX         0.00000   0.25261   0.00000   0.61686   0.14158
   8        3PY         0.00000  -0.06870   0.00000   0.33463  -0.25110
   9        3PZ         0.04480   0.00000   0.01116   0.00000   0.00000
  10        4S          0.00000  -0.58634   0.00000  -0.49755   0.90543
  11        4PX         0.00000   0.22189   0.00000  -0.03494  -0.40687
  12        4PY         0.00000   0.50923   0.00000   0.18075  -0.02767
  13        4PZ        -0.24781   0.00000  -0.00658   0.00000   0.00000
  14        5D 0        0.00000   0.83438   0.00000   0.01433  -0.30162
  15        5D+1        0.81375   0.00000  -0.35388   0.00000   0.00000
  16        5D-1        0.20872   0.00000  -0.00811   0.00000   0.00000
  17        5D+2        0.00000   0.60388   0.00000  -0.08231   0.78983
  18        5D-2        0.00000  -0.16832   0.00000   0.25479  -0.16427
  19 2   N  1S          0.00000  -0.04284   0.00000   0.01963  -0.01503
  20        2S          0.00000  -0.09846   0.00000   0.03754  -0.03660
  21        2PX         0.00000   0.01210   0.00000   0.03149  -0.00250
  22        2PY         0.00000   0.09376   0.00000  -0.01073   0.00462
  23        2PZ         0.02147   0.00000   0.00514   0.00000   0.00000
  24        3S          0.00000   0.92492   0.00000  -0.35580   0.42103
  25        3PX         0.00000  -0.04251   0.00000   0.12491  -0.03212
  26        3PY         0.00000   0.64277   0.00000  -0.00076   0.21953
  27        3PZ         0.08385   0.00000  -0.00380   0.00000   0.00000
  28        4S          0.00000  -0.17809   0.00000   1.00948  -0.68294
  29        4PX         0.00000   0.04844   0.00000  -0.18040   0.04547
  30        4PY         0.00000  -0.53491   0.00000   0.38506  -0.49140
  31        4PZ        -0.02231   0.00000  -0.00014   0.00000   0.00000
  32        5D 0        0.00000  -0.11352   0.00000  -0.36840   0.51907
  33        5D+1        0.12794   0.00000   0.98849   0.00000   0.00000
  34        5D-1       -0.06949   0.00000  -0.01054   0.00000   0.00000
  35        5D+2        0.00000   0.33675   0.00000   0.18948  -0.18248
  36        5D-2        0.00000  -0.00969   0.00000  -0.19202  -0.25331
  37 3   H  1S          0.00000  -0.01534   0.00000  -1.10988  -0.57783
  38        2S          0.00000   0.51492   0.00000   1.54548   0.14956
  39        3S          0.00000   0.18935   0.00000  -0.69387  -0.49723
  40        4PX         0.00000   0.42984   0.00000   0.11619  -0.52438
  41        4PY         0.00000   0.02350   0.00000   0.53295  -0.54580
  42        4PZ         0.93069   0.00000   0.00995   0.00000   0.00000
                          31        32        33        34        35
                           V         V         V         V         V
     Eigenvalues --     2.35382   2.43908   2.66301   2.74298   2.82153
   1 1   C  1S          0.01753   0.00000   0.01748   0.00000   0.05479
   2        2S          0.04227   0.00000   0.03288   0.00000   0.14229
   3        2PX         0.62932   0.00000  -0.18409   0.00000  -0.13668
   4        2PY        -0.09118   0.00000  -0.05993   0.00000   0.44216
   5        2PZ         0.00000   0.84104   0.00000  -0.99934   0.00000
   6        3S         -0.19918   0.00000  -0.08651   0.00000  -1.19301
   7        3PX         0.11194   0.00000   0.79159   0.00000   0.43703
   8        3PY         0.10442   0.00000  -0.20506   0.00000   0.68206
   9        3PZ         0.00000  -0.68473   0.00000   1.38461   0.00000
  10        4S         -0.62094   0.00000   0.38025   0.00000  -1.82322
  11        4PX         0.77708   0.00000   0.00591   0.00000   0.05653
  12        4PY         0.07650   0.00000  -0.23890   0.00000   0.83360
  13        4PZ         0.00000   0.54428   0.00000  -0.30382   0.00000
  14        5D 0        0.15152   0.00000   0.12106   0.00000   0.37900
  15        5D+1        0.00000   0.03035   0.00000  -0.06414   0.00000
  16        5D-1        0.00000  -0.61472   0.00000  -0.56550   0.00000
  17        5D+2       -0.43877   0.00000  -0.59773   0.00000   0.32318
  18        5D-2       -0.70534   0.00000   0.17031   0.00000  -0.06367
  19 2   N  1S          0.00767   0.00000   0.00670   0.00000  -0.00942
  20        2S          0.01309   0.00000   0.00978   0.00000  -0.01840
  21        2PX         0.02550   0.00000   0.23690   0.00000   0.04818
  22        2PY        -0.06296   0.00000  -0.16021   0.00000   0.42646
  23        2PZ         0.00000  -0.03570   0.00000  -0.20877   0.00000
  24        3S         -0.03751   0.00000   0.10762   0.00000  -0.02278
  25        3PX        -0.07122   0.00000  -0.18569   0.00000  -0.06476
  26        3PY        -0.07464   0.00000  -0.11072   0.00000   0.09565
  27        3PZ         0.00000   0.00818   0.00000  -0.00484   0.00000
  28        4S         -0.12646   0.00000  -1.31516   0.00000   2.32363
  29        4PX        -0.18052   0.00000   0.55252   0.00000   0.11646
  30        4PY        -0.10240   0.00000  -0.76346   0.00000   1.22682
  31        4PZ         0.00000  -0.38436   0.00000  -0.25416   0.00000
  32        5D 0        0.32877   0.00000   0.52024   0.00000  -0.49435
  33        5D+1        0.00000   0.00170   0.00000  -0.01725   0.00000
  34        5D-1        0.00000  -0.81984   0.00000  -0.81700   0.00000
  35        5D+2       -0.12116   0.00000   0.06051   0.00000  -1.06763
  36        5D-2       -0.64252   0.00000   0.76616   0.00000   0.06395
  37 3   H  1S         -0.37250   0.00000  -0.56874   0.00000  -0.21073
  38        2S          1.42730   0.00000   2.01364   0.00000   0.68675
  39        3S          0.10894   0.00000  -0.29535   0.00000   0.03330
  40        4PX         0.86388   0.00000   1.11470   0.00000   0.44330
  41        4PY         0.10812   0.00000  -0.12036   0.00000   0.01750
  42        4PZ         0.00000   0.05877   0.00000  -0.14912   0.00000
                          36        37        38        39        40
                           V         V         V         V         V
     Eigenvalues --     2.97960   3.22392   3.72318   3.79461   4.31963
   1 1   C  1S          0.07011   0.03153   0.00000   0.00366   0.05613
   2        2S          0.14785   0.04591   0.00000   0.01139   0.14114
   3        2PX        -0.13930  -1.08199   0.00000   0.24721   0.06689
   4        2PY        -1.19751   0.08447   0.00000   0.02465   0.17522
   5        2PZ         0.00000   0.00000   0.16367   0.00000   0.00000
   6        3S         -0.95753  -0.20107   0.00000  -0.13035  -1.20238
   7        3PX         0.22560   2.25223   0.00000  -0.48523  -0.24555
   8        3PY         2.89757  -0.33689   0.00000   0.04490   1.54407
   9        3PZ         0.00000   0.00000  -0.38216   0.00000   0.00000
  10        4S         -1.98817   0.33247   0.00000   0.35756  -1.27130
  11        4PX         0.08069  -0.23327   0.00000   0.14595   0.04652
  12        4PY         0.25082  -0.22477   0.00000  -0.09092   0.53858
  13        4PZ         0.00000   0.00000   0.24244   0.00000   0.00000
  14        5D 0        0.67690   0.27093   0.00000  -0.04027   0.39825
  15        5D+1        0.00000   0.00000   0.01944   0.00000   0.00000
  16        5D-1        0.00000   0.00000   0.29281   0.00000   0.00000
  17        5D+2        0.95811  -0.93683   0.00000   0.12412   0.86580
  18        5D-2       -0.14250  -0.61626   0.00000   0.34010   0.06383
  19 2   N  1S         -0.04947   0.00999   0.00000  -0.00324  -0.04616
  20        2S         -0.12482   0.02354   0.00000  -0.00734  -0.08260
  21        2PX        -0.02813  -0.28438   0.00000  -1.24311   0.06750
  22        2PY         0.06690  -0.13312   0.00000  -0.04908  -1.27804
  23        2PZ         0.00000   0.00000  -1.27812   0.00000   0.00000
  24        3S          1.17274  -0.16359   0.00000   0.10324   0.59403
  25        3PX        -0.04755   0.06830   0.00000   1.57249  -0.07000
  26        3PY         1.34253  -0.20452   0.00000   0.11537   2.60390
  27        3PZ         0.00000   0.00000   1.56390   0.00000   0.00000
  28        4S          1.81410  -0.85993   0.00000  -0.23734   2.07885
  29        4PX         0.12573  -0.18565   0.00000  -0.53936  -0.00395
  30        4PY         0.76481  -0.50376   0.00000  -0.13737   0.28568
  31        4PZ         0.00000   0.00000  -0.62355   0.00000   0.00000
  32        5D 0       -0.18894   0.15922   0.00000   0.02081  -0.48525
  33        5D+1        0.00000   0.00000   0.00662   0.00000   0.00000
  34        5D-1        0.00000   0.00000   0.21421   0.00000   0.00000
  35        5D+2       -0.54105   0.13535   0.00000  -0.07141  -0.75544
  36        5D-2       -0.00142  -0.51482   0.00000   0.32312  -0.00620
  37 3   H  1S          0.22593   0.51688   0.00000  -0.33786   0.02804
  38        2S         -0.00445   1.00043   0.00000   0.25672  -0.28405
  39        3S          0.35167  -0.20881   0.00000  -0.20887   0.11146
  40        4PX         0.19961   1.08742   0.00000   0.04931  -0.24161
  41        4PY        -0.20084   0.32787   0.00000  -0.16469   0.04050
  42        4PZ         0.00000   0.00000   0.05013   0.00000   0.00000
                          41        42
                           V         V
     Eigenvalues --    23.92120  35.54034
   1 1   C  1S         -2.03826   0.09799
   2        2S          2.24450  -0.14258
   3        2PX        -0.03948  -0.00239
   4        2PY        -0.05650   0.03313
   5        2PZ         0.00000   0.00000
   6        3S         -0.75727   0.17449
   7        3PX         0.17651   0.01365
   8        3PY         0.53518  -0.30597
   9        3PZ         0.00000   0.00000
  10        4S         -0.26491  -0.08222
  11        4PX        -0.01347  -0.00624
  12        4PY         0.13802   0.09934
  13        4PZ         0.00000   0.00000
  14        5D 0        0.17952  -0.09438
  15        5D+1        0.00000   0.00000
  16        5D-1        0.00000   0.00000
  17        5D+2        0.15723  -0.17051
  18        5D-2       -0.04338   0.00586
  19 2   N  1S         -0.08650  -2.14747
  20        2S          0.05067   2.28619
  21        2PX        -0.00357  -0.00003
  22        2PY        -0.07607   0.05375
  23        2PZ         0.00000   0.00000
  24        3S          0.19039  -0.51828
  25        3PX        -0.00341   0.00374
  26        3PY         0.44661  -0.29684
  27        3PZ         0.00000   0.00000
  28        4S          0.57865   0.25526
  29        4PX         0.00436  -0.01519
  30        4PY         0.20623   0.09206
  31        4PZ         0.00000   0.00000
  32        5D 0       -0.10296   0.04733
  33        5D+1        0.00000   0.00000
  34        5D-1        0.00000   0.00000
  35        5D+2       -0.20043   0.09077
  36        5D-2       -0.01018  -0.00363
  37 3   H  1S          0.00544  -0.01736
  38        2S          0.19406   0.02377
  39        3S         -0.07225  -0.03540
  40        4PX         0.16317   0.00096
  41        4PY         0.02933   0.03291
  42        4PZ         0.00000   0.00000
     Density Matrix:
                           1         2         3         4         5
   1 1   C  1S          0.66201
   2        2S          0.56645   0.49977
   3        2PX        -0.00250  -0.00414   0.05669
   4        2PY        -0.00545  -0.00997   0.00039   0.11804
   5        2PZ         0.00000   0.00000   0.00000   0.00000   0.05857
   6        3S         -0.10149  -0.17426   0.01313   0.02919   0.00000
   7        3PX        -0.00580  -0.00731   0.08090  -0.00227   0.00000
   8        3PY        -0.01556  -0.02130  -0.00060   0.15112   0.00000
   9        3PZ         0.00000   0.00000   0.00000   0.00000   0.08660
  10        4S         -0.10186  -0.16336   0.04458   0.19055   0.00000
  11        4PX        -0.00237  -0.00432   0.03866   0.00619   0.00000
  12        4PY        -0.02051  -0.03161   0.00346   0.06007   0.00000
  13        4PZ         0.00000   0.00000   0.00000   0.00000   0.06299
  14        5D 0       -0.00106   0.00034   0.00214   0.00667   0.00000
  15        5D+1        0.00000   0.00000   0.00000   0.00000  -0.00294
  16        5D-1        0.00000   0.00000   0.00000   0.00000  -0.01503
  17        5D+2       -0.00303  -0.00328  -0.00564   0.01651   0.00000
  18        5D-2        0.00225   0.00310  -0.01228  -0.00605   0.00000
  19 2   N  1S          0.00356   0.00547  -0.00375   0.02175   0.00000
  20        2S          0.00594   0.00804  -0.00607   0.03472   0.00000
  21        2PX        -0.01172  -0.01892   0.05611   0.01709   0.00000
  22        2PY        -0.02402  -0.03736   0.00402  -0.09856   0.00000
  23        2PZ         0.00000   0.00000   0.00000   0.00000   0.07784
  24        3S         -0.01533  -0.01706   0.01866  -0.09724   0.00000
  25        3PX        -0.01746  -0.02819   0.08393   0.02555   0.00000
  26        3PY        -0.03916  -0.05569   0.00504  -0.13379   0.00000
  27        3PZ         0.00000   0.00000   0.00000   0.00000   0.11421
  28        4S          0.01865   0.03887   0.01024  -0.05196   0.00000
  29        4PX        -0.01919  -0.03086   0.05908   0.03170   0.00000
  30        4PY        -0.01576  -0.02154   0.00077  -0.10671   0.00000
  31        4PZ         0.00000   0.00000   0.00000   0.00000   0.09402
  32        5D 0        0.00332   0.00418   0.00108   0.00736   0.00000
  33        5D+1        0.00000   0.00000   0.00000   0.00000  -0.00132
  34        5D-1        0.00000   0.00000   0.00000   0.00000   0.01066
  35        5D+2        0.00600   0.00749  -0.00214   0.01163   0.00000
  36        5D-2       -0.00086  -0.00156   0.00964   0.00255   0.00000
  37 3   H  1S         -0.01762  -0.02743  -0.05255   0.01400   0.00000
  38        2S         -0.02296  -0.03343  -0.08515   0.02581   0.00000
  39        3S          0.00079  -0.00070  -0.02101   0.04443   0.00000
  40        4PX        -0.00595  -0.00724  -0.00762  -0.00248   0.00000
  41        4PY        -0.00354  -0.00543   0.00386   0.00860   0.00000
  42        4PZ         0.00000   0.00000   0.00000   0.00000   0.00723
                           6         7         8         9        10
   6        3S          0.52251
   7        3PX         0.01618   0.11553
   8        3PY         0.04512  -0.00454   0.19414
   9        3PZ         0.00000   0.00000   0.00000   0.12805
  10        4S          0.45580   0.05775   0.24872   0.00000   0.65369
  11        4PX         0.01363   0.05495   0.00773   0.00000   0.04143
  12        4PY         0.08277   0.00321   0.07856   0.00000   0.15056
  13        4PZ         0.00000   0.00000   0.00000   0.09313   0.00000
  14        5D 0       -0.00700   0.00296   0.00828   0.00000   0.00561
  15        5D+1        0.00000   0.00000   0.00000  -0.00435   0.00000
  16        5D-1        0.00000   0.00000   0.00000  -0.02222   0.00000
  17        5D+2        0.00424  -0.00843   0.02112   0.00000   0.02382
  18        5D-2       -0.00724  -0.01737  -0.00758   0.00000  -0.02155
  19 2   N  1S         -0.00875  -0.00594   0.02925   0.00000   0.03443
  20        2S         -0.01038  -0.00928   0.04307   0.00000   0.05307
  21        2PX         0.05430   0.07955   0.02127   0.00000   0.10023
  22        2PY         0.10781   0.00802  -0.12768   0.00000  -0.04662
  23        2PZ         0.00000   0.00000   0.00000   0.11510   0.00000
  24        3S          0.00866   0.02731  -0.10927   0.00000  -0.14931
  25        3PX         0.08106   0.11900   0.03171   0.00000   0.14993
  26        3PY         0.14367   0.01033  -0.17326   0.00000  -0.06544
  27        3PZ         0.00000   0.00000   0.00000   0.16887   0.00000
  28        4S         -0.15331   0.01486  -0.05428   0.00000  -0.21591
  29        4PX         0.08757   0.08336   0.04026   0.00000   0.14889
  30        4PY         0.05719   0.00387  -0.13982   0.00000  -0.09751
  31        4PZ         0.00000   0.00000   0.00000   0.13902   0.00000
  32        5D 0       -0.00839   0.00140   0.00923   0.00000   0.00450
  33        5D+1        0.00000   0.00000   0.00000  -0.00195   0.00000
  34        5D-1        0.00000   0.00000   0.00000   0.01576   0.00000
  35        5D+2       -0.01515  -0.00331   0.01485   0.00000   0.00291
  36        5D-2        0.00510   0.01369   0.00308   0.00000   0.01340
  37 3   H  1S          0.07252  -0.07566   0.02068   0.00000   0.04423
  38        2S          0.08095  -0.12248   0.03654   0.00000   0.04843
  39        3S          0.00469  -0.03121   0.05867   0.00000   0.05135
  40        4PX         0.01321  -0.01087  -0.00269   0.00000   0.00218
  41        4PY         0.01458   0.00529   0.01093   0.00000   0.02623
  42        4PZ         0.00000   0.00000   0.00000   0.01070   0.00000
                          11        12        13        14        15
  11        4PX         0.02733
  12        4PY         0.00661   0.04062
  13        4PZ         0.00000   0.00000   0.06774
  14        5D 0        0.00159   0.00215   0.00000   0.00067
  15        5D+1        0.00000   0.00000  -0.00317   0.00000   0.00015
  16        5D-1        0.00000   0.00000  -0.01616   0.00000   0.00076
  17        5D+2       -0.00325   0.00797   0.00000   0.00076   0.00000
  18        5D-2       -0.00870  -0.00419   0.00000  -0.00075   0.00000
  19 2   N  1S         -0.00569   0.00135   0.00000   0.00358   0.00000
  20        2S         -0.00916   0.00454   0.00000   0.00465   0.00000
  21        2PX         0.03919   0.01663   0.00000   0.00244   0.00000
  22        2PY        -0.00587  -0.03826   0.00000  -0.00670   0.00000
  23        2PZ         0.00000   0.00000   0.08371   0.00000  -0.00391
  24        3S          0.02699  -0.02104   0.00000  -0.00957   0.00000
  25        3PX         0.05851   0.02471   0.00000   0.00368   0.00000
  26        3PY        -0.00826  -0.05226   0.00000  -0.00904   0.00000
  27        3PZ         0.00000   0.00000   0.12282   0.00000  -0.00574
  28        4S          0.02215  -0.02121   0.00000  -0.00428   0.00000
  29        4PX         0.04198   0.02785   0.00000   0.00290   0.00000
  30        4PY        -0.01008  -0.05045   0.00000  -0.00614   0.00000
  31        4PZ         0.00000   0.00000   0.10112   0.00000  -0.00473
  32        5D 0        0.00106   0.00245   0.00000   0.00063   0.00000
  33        5D+1        0.00000   0.00000  -0.00142   0.00000   0.00007
  34        5D-1        0.00000   0.00000   0.01146   0.00000  -0.00054
  35        5D+2       -0.00069   0.00385   0.00000   0.00081   0.00000
  36        5D-2        0.00667   0.00210   0.00000   0.00047   0.00000
  37 3   H  1S         -0.03408   0.01541   0.00000  -0.00273   0.00000
  38        2S         -0.05578   0.02107   0.00000  -0.00347   0.00000
  39        3S         -0.01029   0.02344   0.00000   0.00132   0.00000
  40        4PX        -0.00515   0.00045   0.00000  -0.00071   0.00000
  41        4PY         0.00290   0.00583   0.00000   0.00048   0.00000
  42        4PZ         0.00000   0.00000   0.00778   0.00000  -0.00036
                          16        17        18        19        20
  16        5D-1        0.00385
  17        5D+2        0.00000   0.00299
  18        5D-2        0.00000   0.00038   0.00298
  19 2   N  1S          0.00000   0.00752  -0.00020   0.65339
  20        2S          0.00000   0.01006  -0.00026   0.57057   0.51549
  21        2PX         0.00000  -0.00308  -0.01321  -0.00067  -0.00091
  22        2PY         0.00000  -0.01216   0.00346   0.00829   0.01309
  23        2PZ        -0.01997   0.00000   0.00000   0.00000   0.00000
  24        3S          0.00000  -0.02238   0.00027  -0.12617  -0.21316
  25        3PX         0.00000  -0.00457  -0.01975  -0.00013  -0.00010
  26        3PY         0.00000  -0.01644   0.00480   0.01409   0.02015
  27        3PZ        -0.02930   0.00000   0.00000   0.00000   0.00000
  28        4S          0.00000  -0.01569   0.00079  -0.13775  -0.21246
  29        4PX         0.00000  -0.00119  -0.01475   0.00261   0.00411
  30        4PY         0.00000  -0.01264   0.00488   0.01288   0.02284
  31        4PZ        -0.02412   0.00000   0.00000   0.00000   0.00000
  32        5D 0        0.00000   0.00088  -0.00055   0.00068   0.00161
  33        5D+1        0.00034   0.00000   0.00000   0.00000   0.00000
  34        5D-1       -0.00273   0.00000   0.00000   0.00000   0.00000
  35        5D+2        0.00000   0.00167  -0.00003  -0.00062   0.00003
  36        5D-2        0.00000  -0.00059  -0.00223   0.00007   0.00007
  37 3   H  1S          0.00000   0.00730   0.01017   0.00135   0.00226
  38        2S          0.00000   0.01234   0.01655   0.00566   0.00987
  39        3S          0.00000   0.00766   0.00227  -0.00121  -0.00248
  40        4PX         0.00000   0.00045   0.00168  -0.00089  -0.00124
  41        4PY         0.00000   0.00094  -0.00133   0.00206   0.00374
  42        4PZ        -0.00186   0.00000   0.00000   0.00000   0.00000
                          21        22        23        24        25
  21        2PX         0.06064
  22        2PY         0.00052   0.14692
  23        2PZ         0.00000   0.00000   0.10345
  24        3S          0.00269  -0.04004   0.00000   0.63969
  25        3PX         0.09071   0.00151   0.00000   0.00084   0.13571
  26        3PY         0.00012   0.19876   0.00000  -0.05429   0.00117
  27        3PZ         0.00000   0.00000   0.15178   0.00000   0.00000
  28        4S         -0.01160  -0.12037   0.00000   0.58072  -0.02044
  29        4PX         0.06778  -0.00296   0.00000  -0.01122   0.10141
  30        4PY        -0.00704   0.15004   0.00000  -0.07447  -0.00957
  31        4PZ         0.00000   0.00000   0.12496   0.00000   0.00000
  32        5D 0        0.00135  -0.00886   0.00000  -0.00589   0.00202
  33        5D+1        0.00000   0.00000  -0.00176   0.00000   0.00000
  34        5D-1        0.00000   0.00000   0.01417   0.00000   0.00000
  35        5D+2       -0.00182  -0.01640   0.00000  -0.00286  -0.00276
  36        5D-2        0.01007  -0.00054   0.00000   0.00007   0.01506
  37 3   H  1S         -0.04420   0.00146   0.00000  -0.00927  -0.06623
  38        2S         -0.07377  -0.00641   0.00000  -0.03395  -0.11044
  39        3S         -0.01499  -0.05148   0.00000   0.00875  -0.02273
  40        4PX        -0.00677   0.00501   0.00000   0.00244  -0.01014
  41        4PY         0.00593  -0.00230   0.00000  -0.01204   0.00890
  42        4PZ         0.00000   0.00000   0.00961   0.00000   0.00000
                          26        27        28        29        30
  26        3PY         0.26899
  27        3PZ         0.00000   0.22269
  28        4S         -0.16256   0.00000   0.59893
  29        4PX        -0.00476   0.00000  -0.02999   0.07856
  30        4PY         0.20325   0.00000  -0.14072  -0.01410   0.16093
  31        4PZ         0.00000   0.18334   0.00000   0.00000   0.00000
  32        5D 0       -0.01200   0.00000   0.00030   0.00172  -0.00848
  33        5D+1        0.00000  -0.00258   0.00000   0.00000   0.00000
  34        5D-1        0.00000   0.02078   0.00000   0.00000   0.00000
  35        5D+2       -0.02220   0.00000   0.00773  -0.00156  -0.01602
  36        5D-2       -0.00082   0.00000  -0.00115   0.01101  -0.00139
  37 3   H  1S          0.00201   0.00000  -0.02335  -0.04071  -0.00513
  38        2S         -0.00848   0.00000  -0.04282  -0.06972  -0.01284
  39        3S         -0.06973   0.00000   0.02862  -0.01109  -0.05678
  40        4PX         0.00681   0.00000  -0.00261  -0.00659   0.00403
  41        4PY        -0.00320   0.00000  -0.01306   0.00790  -0.00372
  42        4PZ         0.00000   0.01411   0.00000   0.00000   0.00000
                          31        32        33        34        35
  31        4PZ         0.15094
  32        5D 0        0.00000   0.00070
  33        5D+1       -0.00212   0.00000   0.00003
  34        5D-1        0.01711   0.00000  -0.00024   0.00194
  35        5D+2        0.00000   0.00106   0.00000   0.00000   0.00198
  36        5D-2        0.00000   0.00029   0.00000   0.00000  -0.00021
  37 3   H  1S          0.00000  -0.00176   0.00000   0.00000   0.00085
  38        2S          0.00000  -0.00192   0.00000   0.00000   0.00273
  39        3S          0.00000   0.00245   0.00000   0.00000   0.00606
  40        4PX         0.00000  -0.00062   0.00000   0.00000  -0.00047
  41        4PY         0.00000   0.00036   0.00000   0.00000   0.00020
  42        4PZ         0.01161   0.00000  -0.00016   0.00132   0.00000
                          36        37        38        39        40
  36        5D-2        0.00170
  37 3   H  1S         -0.00831   0.06376
  38        2S         -0.01353   0.09739   0.15139
  39        3S         -0.00275   0.02613   0.04225   0.02963
  40        4PX        -0.00128   0.00931   0.01385   0.00205   0.00157
  41        4PY         0.00090  -0.00089  -0.00188   0.00111  -0.00036
  42        4PZ         0.00000   0.00000   0.00000   0.00000   0.00000
                          41        42
  41        4PY         0.00123
  42        4PZ         0.00000   0.00089
    Full Mulliken population analysis:
                           1         2         3         4         5
   1 1   C  1S          0.66201
   2        2S          0.49759   0.49977
   3        2PX         0.00000   0.00000   0.05669
   4        2PY         0.00000   0.00000   0.00000   0.11804
   5        2PZ         0.00000   0.00000   0.00000   0.00000   0.05857
   6        3S         -0.03341  -0.07298   0.00000   0.00000   0.00000
   7        3PX         0.00000   0.00000   0.05089   0.00000   0.00000
   8        3PY         0.00000   0.00000   0.00000   0.09507   0.00000
   9        3PZ         0.00000   0.00000   0.00000   0.00000   0.05448
  10        4S         -0.01566  -0.03057   0.00000   0.00000   0.00000
  11        4PX         0.00000   0.00000   0.00851   0.00000   0.00000
  12        4PY         0.00000   0.00000   0.00000   0.01323   0.00000
  13        4PZ         0.00000   0.00000   0.00000   0.00000   0.01387
  14        5D 0        0.00000   0.00000   0.00000   0.00000   0.00000
  15        5D+1        0.00000   0.00000   0.00000   0.00000   0.00000
  16        5D-1        0.00000   0.00000   0.00000   0.00000   0.00000
  17        5D+2        0.00000   0.00000   0.00000   0.00000   0.00000
  18        5D-2        0.00000   0.00000   0.00000   0.00000   0.00000
  19 2   N  1S          0.00000   0.00000   0.00000  -0.00016   0.00000
  20        2S          0.00000   0.00000   0.00000  -0.00019   0.00000
  21        2PX         0.00000   0.00000   0.00051   0.00000   0.00000
  22        2PY        -0.00011  -0.00007   0.00000   0.00692   0.00000
  23        2PZ         0.00000   0.00000   0.00000   0.00000   0.00070
  24        3S         -0.00036  -0.00044   0.00000   0.01288   0.00000
  25        3PX         0.00000   0.00000   0.00602   0.00000   0.00000
  26        3PY        -0.00277  -0.00465   0.00000   0.03571   0.00000
  27        3PZ         0.00000   0.00000   0.00000   0.00000   0.00820
  28        4S          0.00139   0.00348   0.00000   0.00652   0.00000
  29        4PX         0.00000   0.00000   0.00741   0.00000   0.00000
  30        4PY        -0.00221  -0.00371   0.00000   0.01030   0.00000
  31        4PZ         0.00000   0.00000   0.00000   0.00000   0.01179
  32        5D 0       -0.00013  -0.00020   0.00000   0.00104   0.00000
  33        5D+1        0.00000   0.00000   0.00000   0.00000   0.00000
  34        5D-1        0.00000   0.00000   0.00000   0.00000   0.00139
  35        5D+2       -0.00041  -0.00063   0.00000   0.00284   0.00000
  36        5D-2        0.00000   0.00000   0.00126   0.00000   0.00000
  37 3   H  1S         -0.00013  -0.00016   0.00381  -0.00023   0.00000
  38        2S         -0.00141  -0.00244   0.01317  -0.00092   0.00000
  39        3S          0.00006  -0.00006   0.00138  -0.00067   0.00000
  40        4PX        -0.00037  -0.00053   0.00189   0.00018   0.00000
  41        4PY        -0.00005  -0.00009  -0.00028   0.00044   0.00000
  42        4PZ         0.00000   0.00000   0.00000   0.00000   0.00049
                           6         7         8         9        10
   6        3S          0.52251
   7        3PX         0.00000   0.11553
   8        3PY         0.00000   0.00000   0.19414
   9        3PZ         0.00000   0.00000   0.00000   0.12805
  10        4S          0.35310   0.00000   0.00000   0.00000   0.65369
  11        4PX         0.00000   0.03591   0.00000   0.00000   0.00000
  12        4PY         0.00000   0.00000   0.05133   0.00000   0.00000
  13        4PZ         0.00000   0.00000   0.00000   0.06086   0.00000
  14        5D 0        0.00000   0.00000   0.00000   0.00000   0.00000
  15        5D+1        0.00000   0.00000   0.00000   0.00000   0.00000
  16        5D-1        0.00000   0.00000   0.00000   0.00000   0.00000
  17        5D+2        0.00000   0.00000   0.00000   0.00000   0.00000
  18        5D-2        0.00000   0.00000   0.00000   0.00000   0.00000
  19 2   N  1S         -0.00028   0.00000  -0.00261   0.00000   0.00217
  20        2S         -0.00036   0.00000  -0.00431   0.00000   0.00372
  21        2PX         0.00000   0.00525   0.00000   0.00000   0.00000
  22        2PY         0.01104   0.00000   0.02492   0.00000  -0.00299
  23        2PZ         0.00000   0.00000   0.00000   0.00760   0.00000
  24        3S          0.00207   0.00000   0.04741   0.00000  -0.05450
  25        3PX         0.00000   0.02798   0.00000   0.00000   0.00000
  26        3PY         0.05241   0.00000   0.07416   0.00000  -0.01547
  27        3PZ         0.00000   0.00000   0.00000   0.03970   0.00000
  28        4S         -0.06574   0.00000   0.02120   0.00000  -0.13911
  29        4PX         0.00000   0.03255   0.00000   0.00000   0.00000
  30        4PY         0.03465   0.00000   0.02256   0.00000  -0.05280
  31        4PZ         0.00000   0.00000   0.00000   0.05430   0.00000
  32        5D 0        0.00102   0.00000   0.00083   0.00000  -0.00014
  33        5D+1        0.00000   0.00000   0.00000   0.00000   0.00000
  34        5D-1        0.00000   0.00000   0.00000   0.00426   0.00000
  35        5D+2        0.00318   0.00000   0.00230   0.00000  -0.00015
  36        5D-2        0.00000   0.00370   0.00000   0.00000   0.00000
  37 3   H  1S          0.01088   0.02443  -0.00153   0.00000   0.01084
  38        2S          0.03042   0.05548  -0.00380   0.00000   0.02633
  39        3S          0.00206   0.00718  -0.00310   0.00000   0.03742
  40        4PX         0.00444   0.00421   0.00038   0.00000   0.00046
  41        4PY         0.00112  -0.00074   0.00210   0.00000   0.00128
  42        4PZ         0.00000   0.00000   0.00000   0.00240   0.00000
                          11        12        13        14        15
  11        4PX         0.02733
  12        4PY         0.00000   0.04062
  13        4PZ         0.00000   0.00000   0.06774
  14        5D 0        0.00000   0.00000   0.00000   0.00067
  15        5D+1        0.00000   0.00000   0.00000   0.00000   0.00015
  16        5D-1        0.00000   0.00000   0.00000   0.00000   0.00000
  17        5D+2        0.00000   0.00000   0.00000   0.00000   0.00000
  18        5D-2        0.00000   0.00000   0.00000   0.00000   0.00000
  19 2   N  1S          0.00000  -0.00014   0.00000  -0.00021   0.00000
  20        2S          0.00000  -0.00053   0.00000  -0.00031   0.00000
  21        2PX         0.00295   0.00000   0.00000   0.00000   0.00000
  22        2PY         0.00000   0.00104   0.00000   0.00078   0.00000
  23        2PZ         0.00000   0.00000   0.00630   0.00000   0.00000
  24        3S          0.00000   0.01078   0.00000   0.00184   0.00000
  25        3PX         0.01625   0.00000   0.00000   0.00000   0.00000
  26        3PY         0.00000   0.00283   0.00000   0.00118   0.00000
  27        3PZ         0.00000   0.00000   0.03411   0.00000   0.00000
  28        4S          0.00000   0.01349   0.00000   0.00034   0.00000
  29        4PX         0.02670   0.00000   0.00000   0.00000   0.00000
  30        4PY         0.00000  -0.00512   0.00000  -0.00024   0.00000
  31        4PZ         0.00000   0.00000   0.06431   0.00000   0.00000
  32        5D 0        0.00000  -0.00007   0.00000   0.00008   0.00000
  33        5D+1        0.00000   0.00000   0.00000   0.00000   0.00001
  34        5D-1        0.00000   0.00000   0.00142   0.00000   0.00000
  35        5D+2        0.00000  -0.00018   0.00000  -0.00002   0.00000
  36        5D-2        0.00082   0.00000   0.00000   0.00000   0.00000
  37 3   H  1S          0.01228  -0.00128   0.00000   0.00049   0.00000
  38        2S          0.03443  -0.00299   0.00000   0.00047   0.00000
  39        3S          0.00510  -0.00267   0.00000  -0.00004   0.00000
  40        4PX         0.00017  -0.00003   0.00000   0.00009   0.00000
  41        4PY        -0.00019   0.00141   0.00000  -0.00001   0.00000
  42        4PZ         0.00000   0.00000   0.00201   0.00000   0.00013
                          16        17        18        19        20
  16        5D-1        0.00385
  17        5D+2        0.00000   0.00299
  18        5D-2        0.00000   0.00000   0.00298
  19 2   N  1S          0.00000  -0.00076   0.00000   0.65339
  20        2S          0.00000  -0.00117   0.00000   0.50910   0.51549
  21        2PX         0.00000   0.00000   0.00185   0.00000   0.00000
  22        2PY         0.00000   0.00245   0.00000   0.00000   0.00000
  23        2PZ         0.00280   0.00000   0.00000   0.00000   0.00000
  24        3S          0.00000   0.00746   0.00000  -0.04343  -0.08758
  25        3PX         0.00000   0.00000   0.00714   0.00000   0.00000
  26        3PY         0.00000   0.00373   0.00000   0.00000   0.00000
  27        3PZ         0.01059   0.00000   0.00000   0.00000   0.00000
  28        4S          0.00000   0.00215   0.00000  -0.02182  -0.03822
  29        4PX         0.00000   0.00000   0.00404   0.00000   0.00000
  30        4PY         0.00000  -0.00084   0.00000   0.00000   0.00000
  31        4PZ         0.00661   0.00000   0.00000   0.00000   0.00000
  32        5D 0        0.00000  -0.00002   0.00000   0.00000   0.00000
  33        5D+1        0.00000   0.00000   0.00000   0.00000   0.00000
  34        5D-1        0.00109   0.00000   0.00000   0.00000   0.00000
  35        5D+2        0.00000   0.00018   0.00000   0.00000   0.00000
  36        5D-2        0.00000   0.00000   0.00089   0.00000   0.00000
  37 3   H  1S          0.00000   0.00205   0.00139   0.00000   0.00000
  38        2S          0.00000   0.00258   0.00168   0.00012   0.00023
  39        3S          0.00000   0.00032   0.00005  -0.00006  -0.00013
  40        4PX         0.00000   0.00008   0.00029  -0.00001  -0.00001
  41        4PY         0.00000   0.00019   0.00039  -0.00001  -0.00002
  42        4PZ         0.00015   0.00000   0.00000   0.00000   0.00000
                          21        22        23        24        25
  21        2PX         0.06064
  22        2PY         0.00000   0.14692
  23        2PZ         0.00000   0.00000   0.10345
  24        3S          0.00000   0.00000   0.00000   0.63969
  25        3PX         0.05624   0.00000   0.00000   0.00000   0.13571
  26        3PY         0.00000   0.12323   0.00000   0.00000   0.00000
  27        3PZ         0.00000   0.00000   0.09411   0.00000   0.00000
  28        4S          0.00000   0.00000   0.00000   0.44533   0.00000
  29        4PX         0.01422   0.00000   0.00000   0.00000   0.06515
  30        4PY         0.00000   0.03147   0.00000   0.00000   0.00000
  31        4PZ         0.00000   0.00000   0.02621   0.00000   0.00000
  32        5D 0        0.00000   0.00000   0.00000   0.00000   0.00000
  33        5D+1        0.00000   0.00000   0.00000   0.00000   0.00000
  34        5D-1        0.00000   0.00000   0.00000   0.00000   0.00000
  35        5D+2        0.00000   0.00000   0.00000   0.00000   0.00000
  36        5D-2        0.00000   0.00000   0.00000   0.00000   0.00000
  37 3   H  1S          0.00021   0.00001   0.00000  -0.00029   0.00468
  38        2S          0.00349  -0.00024   0.00000  -0.00567   0.02120
  39        3S          0.00049  -0.00136   0.00000   0.00244   0.00295
[...]
 Electronic spatial extent (au):  <R**2>=             47.5058
 Charge=              0.0000 electrons
 Dipole moment (field-independent basis, Debye):
    X=             -1.2688    Y=              0.2630    Z=              0.0000  Tot=              1.2958
 Quadrupole moment (field-independent basis, Debye-Ang):
   XX=             -9.6884   YY=            -14.1366   ZZ=            -12.0242
   XY=             -0.4317   XZ=              0.0000   YZ=              0.0000
 Traceless Quadrupole moment (field-independent basis, Debye-Ang):
   XX=              2.2613   YY=             -2.1868   ZZ=             -0.0745
   XY=             -0.4317   XZ=              0.0000   YZ=              0.0000
 Octapole moment (field-independent basis, Debye-Ang**2):
  XXX=             -2.4511  YYY=             -2.7337  ZZZ=              0.0000  XYY=             -0.2745
  XXY=             -0.4695  XXZ=              0.0000  XZZ=             -0.2467  YZZ=             -0.6576
  YYZ=              0.0000  XYZ=              0.0000
 Hexadecapole moment (field-independent basis, Debye-Ang**3):
 XXXX=            -12.8718 YYYY=            -42.4790 ZZZZ=            -11.8445 XXXY=             -0.1449
 XXXZ=              0.0000 YYYX=              0.6103 YYYZ=              0.0000 ZZZX=              0.0000
 ZZZY=              0.0000 XXYY=             -8.9522 XXZZ=             -4.5678 YYZZ=             -8.5637
 XXYZ=              0.0000 YYXZ=              0.0000 ZZXY=              0.2012
 N-N= 2.407013207628D+01 E-N=-2.659909366384D+02  KE= 9.307568706341D+01
 Symmetry A'   KE= 9.011616726979D+01
 Symmetry A"   KE= 2.959519793628D+00
 Orbital energies and kinetic energies (alpha):
                                 1                 2
   1         O               -14.383527         22.051431
   2         O               -10.231937         15.952476
   3         O                -0.988289          2.163585
   4         O                -0.536194          1.482149
   5         O                -0.450113          1.837984
   6         O                -0.391469          1.479760
   7         O                -0.347298          1.570458
   8         V                -0.077111          1.681635
   9         V                 0.001178          1.605067
  10         V                 0.040935          0.847271
  11         V                 0.216935          0.846815
  12         V                 0.307492          0.913189
  13         V                 0.395787          1.354850
  14         V                 0.408055          1.519700
  15         V                 0.527759          1.543180
  16         V                 0.552726          1.923014
  17         V                 0.633070          1.949909
  18         V                 0.641092          1.988338
  19         V                 0.737235          3.255677
  20         V                 1.008654          1.870210
  21         V                 1.023886          3.220610
  22         V                 1.214599          2.335158
  23         V                 1.360673          2.506326
  24         V                 1.433043          2.438968
  25         V                 1.607950          2.674026
  26         V                 1.747717          2.607007
  27         V                 1.891294          3.691339
  28         V                 2.001025          3.273502
  29         V                 2.109371          3.814439
  30         V                 2.242943          3.844749
  31         V                 2.353825          4.370751
  32         V                 2.439079          4.836892
  33         V                 2.663007          4.201142
  34         V                 2.742982          5.406256
  35         V                 2.821525          5.441657
  36         V                 2.979604          6.401052
  37         V                 3.223919          6.120425
  38         V                 3.723176          8.783914
  39         V                 3.794609          8.680737
  40         V                 4.319634          9.395685
  41         V                23.921196         60.474822
  42         V                35.540335         89.003875
 Total kinetic energy from orbitals= 9.307568706341D+01
  Exact polarizability:  13.928   0.075  18.881   0.000   0.000  10.196
 Approx polarizability:  20.438   1.209  37.446   0.000   0.000  13.748
 No NMR shielding tensors so no spin-rotation constants.
 Leave Link  601 at Thu Apr 14 13:06:40 2016, MaxMem=   104857600 cpu:         0.1
 (Enter /home/projets/algogen/g09.D01/g09/l701.exe)
 Compute integral second derivatives.
 ... and contract with generalized density number  0.
 Leave Link  701 at Thu Apr 14 13:06:40 2016, MaxMem=   104857600 cpu:         0.1
 (Enter /home/projets/algogen/g09.D01/g09/l702.exe)
 L702 exits ... SP integral derivatives will be done elsewhere.
 Leave Link  702 at Thu Apr 14 13:06:41 2016, MaxMem=   104857600 cpu:         0.0
 (Enter /home/projets/algogen/g09.D01/g09/l703.exe)
 Compute integral second derivatives, UseDBF=F ICtDFT=           0.
 Integral derivatives from FoFJK, PRISM(SPDF).
 Calling FoFJK, ICntrl=    100127 FMM=F ISym2X=1 I1Cent= 0 IOpClX= 0 NMat=1 NMatS=1 NMatT=0.
 FoFJK:  IHMeth= 1 ICntrl=  100127 DoSepK=F KAlg= 0 I1Cent=   0 FoldK=F
 IRaf=         0 NMat=   1 IRICut=       1 DoRegI=T DoRafI=F ISym2E= 1.
 FoFCou: FMM=F IPFlag=           0 FMFlag=      100000 FMFlg1=         800
         NFxFlg=           0 DoJE=F BraDBF=F KetDBF=F FulRan=T
         wScrn=  0.000000 ICntrl=  100127 IOpCl=  0 I1Cent=           0 NGrid=           0
         NMat0=    1 NMatS0=      1 NMatT0=    0 NMatD0=    1 NMtDS0=    0 NMtDT0=    0
 Petite list used in FoFCou.
 Leave Link  703 at Thu Apr 14 13:06:42 2016, MaxMem=   104857600 cpu:         1.2
 (Enter /home/projets/algogen/g09.D01/g09/l716.exe)
 Dipole        =-4.99199474D-01 1.03484694D-01 2.64688141D-33
 Polarizability= 1.39279386D+01 7.48272378D-02 1.88813262D+01
                -3.19511519D-10 2.32273647D-10 1.01961272D+01
 Full mass-weighted force constant matrix:
 Low frequencies ----1121.5331 -205.6463  -54.5603   -0.0010   -0.0005   -0.0004
 Low frequencies ---  198.7726 2079.5538 2692.6880
 ******    1 imaginary frequencies (negative Signs) ****** 
 Diagonal vibrational polarizability:
        0.5527875       2.7792283       0.0000000
 Harmonic frequencies (cm**-1), IR intensities (KM/Mole), Raman scattering
 activities (A**4/AMU), depolarization ratios for plane and unpolarized
 incident light, reduced masses (AMU), force constants (mDyne/A),
 and normal coordinates:
                      1                      2                      3
                     A'                     A'                     A'
 Frequencies --  -1121.5331              2079.5427              2692.6515
 Red. masses --      1.1739                12.1653                 1.0614
 Frc consts  --      0.8700                30.9963                 4.5341
 IR Inten    --    129.8528                 5.9337               139.2652
  Atom  AN      X      Y      Z        X      Y      Z        X      Y      Z
     1   6     0.07   0.06   0.00    -0.02   0.73   0.00     0.07   0.00   0.00
     2   7    -0.07   0.02   0.00     0.02  -0.64   0.00     0.01   0.00   0.00
     3   1     0.09  -0.99   0.00     0.00   0.24   0.00    -1.00  -0.04   0.00

 -------------------
 - Thermochemistry -
 -------------------
 Temperature   298.150 Kelvin.  Pressure   1.00000 Atm.
 Atom     1 has atomic number  6 and mass  12.00000
 Atom     2 has atomic number  7 and mass  14.00307
 Atom     3 has atomic number  1 and mass   1.00783
 Molecular mass:    27.01090 amu.
 Principal axes and moments of inertia in atomic units:
                           1         2         3
     Eigenvalues --     4.41981  32.73486  37.15467
           X           -0.05224   0.99863   0.00000
           Y            0.99863   0.05224   0.00000
           Z            0.00000   0.00000   1.00000
 This molecule is an asymmetric top.
 Rotational symmetry number  1.
 Rotational temperatures (Kelvin)     19.59672     2.64592     2.33117
 Rotational constants (GHZ):         408.32983    55.13210    48.57374
    1 imaginary frequencies ignored.
 Zero-point vibrational energy      28544.1 (Joules/Mol)
                                    6.82219 (Kcal/Mol)
 Vibrational temperatures:   2991.99  3874.12
          (Kelvin)
 
 Zero-point correction=                           0.010872 (Hartree/Particle)
 Thermal correction to Energy=                    0.013705
 Thermal correction to Enthalpy=                  0.014649
 Thermal correction to Gibbs Free Energy=        -0.010131
 Sum of electronic and zero-point Energies=            -93.365305
 Sum of electronic and thermal Energies=               -93.362472
 Sum of electronic and thermal Enthalpies=             -93.361527
 Sum of electronic and thermal Free Energies=          -93.386308
 
                     E (Thermal)             CV                S
                      KCal/Mol        Cal/Mol-Kelvin    Cal/Mol-Kelvin
 Total                    8.600              5.971             52.155
 Electronic               0.000              0.000              0.000
 Translational            0.889              2.981             35.816
 Rotational               0.889              2.981             16.338
 Vibrational              6.822              0.010              0.001
                       Q            Log10(Q)             Ln(Q)
 Total Bot       0.457243D+05          4.660147         10.730385
 Total V=0       0.457977D+10          9.660844         22.244915
 Vib (Bot)       0.998442D-05         -5.000677        -11.514484
 Vib (V=0)       0.100005D+01          0.000020          0.000046
 Electronic      0.100000D+01          0.000000          0.000000
 Translational   0.551777D+07          6.741764         15.523485
 Rotational      0.829966D+03          2.919060          6.721385
 
                                                           point 3 reverse
                                                             IR Spectrum
 
      2                           2                                                                                                  
      6                           0                                                                                                  
      9                           8                                                                                                  
      3                           0                                                                                                  
 
      X                           X                                                                                                  
      X                                                                                                                              
      X                                                                                                                              
      X                                                                                                                              
      X                                                                                                                              
      X                                                                                                                              
      X                                                                                                                              
      X                                                                                                                              
      X                                                                                                                              
      X                                                                                                                              
      X                                                                                                                              
      X                                                                                                                              
      X                                                                                                                              
      X                                                                                                                              
      X                                                                                                                              
      X                                                                                                                              
      X                                                                                                                              
      X                                                                                                                              
      X                                                                                                                              
      X                                                                                                                              
 
 ***** Axes restored to original set *****
 -------------------------------------------------------------------
 Center     Atomic                   Forces (Hartrees/Bohr)
 Number     Number              X              Y              Z
 -------------------------------------------------------------------
      1        6           0.007678084    0.000000000    0.005906801
      2        7          -0.008606627    0.000000000    0.002770139
      3        1           0.000928543    0.000000000   -0.008676939
 -------------------------------------------------------------------
 Cartesian Forces:  Max     0.008676939 RMS     0.005288798
 Z-matrix is all fixed cartesians, so copy forces.
 Force constants in Cartesian coordinates: 
                1             2             3             4             5 
      1  0.147965D+00
      2  0.000000D+00  0.538867D-02
      3 -0.578764D-01  0.000000D+00  0.100575D+01
      4  0.712223D-01  0.000000D+00  0.723256D-01 -0.304683D-01
      5  0.000000D+00 -0.180559D-02  0.000000D+00  0.000000D+00 -0.217924D-02
      6  0.337611D-01  0.000000D+00 -0.106117D+01 -0.317138D-01  0.000000D+00
      7 -0.219187D+00  0.000000D+00 -0.144492D-01 -0.407540D-01  0.000000D+00
      8  0.000000D+00 -0.358308D-02  0.000000D+00  0.000000D+00  0.398483D-02
      9  0.241153D-01  0.000000D+00  0.554178D-01 -0.406118D-01  0.000000D+00
                6             7             8             9 
      6  0.107776D+01
      7 -0.204731D-02  0.259941D+00
      8  0.000000D+00  0.000000D+00 -0.401749D-03
      9 -0.165899D-01  0.164965D-01  0.000000D+00 -0.388278D-01
 Leave Link  716 at Thu Apr 14 13:06:42 2016, MaxMem=   104857600 cpu:         0.0
 (Enter /home/projets/algogen/g09.D01/g09/l103.exe)

 GradGradGradGradGradGradGradGradGradGradGradGradGradGradGradGradGradGrad
 Berny optimization.
 Search for a local minimum.
 Step number   1 out of a maximum of    2
 All quantities printed in internal units (Hartrees-Bohrs-Radians)
 Second derivative matrix not updated -- analytic derivatives used.
 The second derivative matrix:
                          X1        Y1        Z1        X2        Y2
           X1           0.14796
           Y1           0.00000   0.00539
           Z1          -0.05788   0.00000   1.00575
           X2           0.07122   0.00000   0.07233  -0.03047
           Y2           0.00000  -0.00181   0.00000   0.00000  -0.00218
           Z2           0.03376   0.00000  -1.06117  -0.03171   0.00000
           X3          -0.21919   0.00000  -0.01445  -0.04075   0.00000
           Y3           0.00000  -0.00358   0.00000   0.00000   0.00398
           Z3           0.02412   0.00000   0.05542  -0.04061   0.00000
                          Z2        X3        Y3        Z3
           Z2           1.07776
           X3          -0.00205   0.25994
           Y3           0.00000   0.00000  -0.00040
           Z3          -0.01659   0.01650   0.00000  -0.03883
 ITU=  0
     Eigenvalues ---   -0.10510   0.38790   2.10414
 Eigenvalue     1 is  -1.05D-01 should be greater than     0.000000 Eigenvector:
                          Z3        X2        X1        Z1        X3
   1                    0.85161   0.32657  -0.28203  -0.19911  -0.17321
                          Z2        Y2        Y1        Y3
   1                   -0.13754   0.00000   0.00000   0.00000
 Angle between quadratic step and forces=  26.70 degrees.
 ClnCor:  largest displacement from symmetrization is 8.36D-17 for atom     3.
 Linear search not attempted -- first point.
 ClnCor:  largest displacement from symmetrization is 1.83D-15 for atom     3.
 TrRot= -0.009223  0.000000  0.012465  0.000000 -0.016409  0.000000
 Variable       Old X    -DE/DX   Delta X   Delta X   Delta X     New X
                                 (Linear)    (Quad)   (Total)
    X1       -0.06681   0.00768   0.00000   0.03967   0.04929  -0.01752
    Y1        0.00000   0.00000   0.00000   0.00000   0.00000   0.00000
    Z1       -1.17604   0.00591   0.00000   0.02739   0.03956  -1.13648
    X2       -0.09247  -0.00861   0.00000  -0.04346  -0.07027  -0.16274
    Y2        0.00000   0.00000   0.00000   0.00000   0.00000   0.00000
    Z2        1.05509   0.00277   0.00000   0.01796   0.02805   1.08314
    X3        2.08029   0.00093   0.00000   0.01783   0.02098   2.10127
    Y3        0.00000   0.00000   0.00000   0.00000   0.00000   0.00000
    Z3       -0.65687  -0.00868   0.00000  -0.11461  -0.06761  -0.72449
         Item               Value     Threshold  Converged?
 Maximum Force            0.008677     0.000450     NO 
 RMS     Force            0.005289     0.000300     NO 
 Maximum Displacement     0.070273     0.001800     NO 
 RMS     Displacement     0.040459     0.001200     NO 
 Predicted change in Energy=-2.839178D-03
 GradGradGradGradGradGradGradGradGradGradGradGradGradGradGradGradGradGrad

 Leave Link  103 at Thu Apr 14 13:06:42 2016, MaxMem=   104857600 cpu:         0.0
 (Enter /home/projets/algogen/g09.D01/g09/l9999.exe)

 Test job not archived.
 1\1\GINC-ROMEO61\Freq\RB3LYP\6-311G(d,p)\C1H1N1\ROOT\14-Apr-2016\0\\#P
  B3LYP 6-311G** FREQ # POP=full GFINPUT IOP(6/7=3)\\point 3 reverse\\0
 ,1\C,-0.035355,0.,-0.622332\N,-0.048932,0.,0.558327\H,1.100842,0.,-0.3
 47602\\Version=ES64L-G09RevD.01\State=1-A'\HF=-93.3761764\RMSD=3.553e-
 09\RMSF=5.289e-03\ZeroPoint=0.0108719\Thermal=0.0137049\Dipole=0.50035
 64,0.,-0.0977377\DipoleDeriv=-0.232297,0.,-0.042732,0.,-0.1341139,0.,0
 .201491,0.,-0.2330439,-0.1329059,0.,0.1455551,0.,-0.0977462,0.,-0.1948
 713,0.,-0.1248639,0.3652029,0.,-0.1028231,0.,0.2318602,0.,-0.0066197,0
 .,0.3579078\Polar=13.9268728,0.,10.1961272,0.0178535,0.,18.882392\PG=C
 S [SG(C1H1N1)]\NImag=1\\0.14796480,0.,0.00538867,-0.05787644,0.,1.0057
 5008,0.07122229,0.,0.07232560,-0.03046832,0.,-0.00180559,0.,0.,-0.0021
 7924,0.03376115,0.,-1.06116784,-0.03171384,0.,1.07775777,-0.21918708,0
 .,-0.01444916,-0.04075397,0.,-0.00204731,0.25994105,0.,-0.00358308,0.,
 0.,0.00398483,0.,0.,-0.00040175,0.02411529,0.,0.05541776,-0.04061176,0
 .,-0.01658993,0.01649646,0.,-0.03882783\\-0.00767808,0.,-0.00590680,0.
 00860663,0.,-0.00277014,-0.00092854,0.,0.00867694\\\@


 ANYONE WHO IS NOT SHOCKED BY QUANTUM THEORY HAS
 NOT UNDERSTOOD IT. -- NIELS BOHR(1885-1962)
 Job cpu time:       0 days  0 hours  0 minutes  5.0 seconds.
 File lengths (MBytes):  RWF=      5 Int=      0 D2E=      0 Chk=      1 Scr=      1
 Normal termination of Gaussian 09 at Thu Apr 14 13:06:42 2016.
************
total 116
drwxrwxr-x 2 henon henon   4096 14 avril 13:06 .
drwxrwxr-x 3 henon henon   4096 14 avril 13:06 ..
-rw-r--r-- 1 henon henon    268 14 avril 13:06 rev3.inp
-rw-rw-r-- 1 henon henon 104647 14 avril 13:06 rev3.out
Run on 1 cores
romeo61
************
