
 Primary working directories    : /scratch_p/cours/31321
 Secondary working directories  : /scratch_p/cours/31321
 Wavefunction directory         : /home/cours/wfu/
 Main file repository           : /scratch_p/cours/31321/

 SHA1      : c1281485f5ab15cf3ef7a6651587cbc70f616fdb
 NAME      : 2015.1.34
 ARCHNAME  : linux/x86_64
 FC        : /apps/intel/2018.3//compilers_and_libraries_2018.3.222/linux/mpi/intel64/bin/mpiifort
 BLASLIB   : -L/apps/intel/2018.3/mkl/lib/intel64 -lmkl_intel_ilp64 -lmkl_intel_thread -lmkl_core
 id        : vlad

 Nodes             nprocs
 romeo113.ro18.urca    1

 Using customized tuning parameters: mindgm=1; mindgv=20; mindgc=4; mindgr=1; noblas=0; minvec=7
 default implementation of scratch files=df  

 ***,optimisation
 memory,100,m;
 GPRINT,orbitals,civector,basis
 nosym
 ANGSTROM
 orient,mass
 geomtyp=xyz
 geometry={
 6
 C    0.00    0.00     0.00
 H    0.99    0.33    -0.38
 C    0.00   -0.00     1.46
 H   -0.21   -1.02    -0.37
 H   -0.78    0.70    -0.37
 N   -0.00    0.00     2.62
 }
 
 basis=6-31G(d,p);
 endbasis;
 
 {rhf;wf,22,1,0;}
 {mp2;wf,22,1,0;}
 optg,savexyz=ch3cn.xyz;
 frequencies,NUMERICAL;
 put,molden,test.molden;

 Variables initialized (889), CPU time= 0.00 sec
 Commands  initialized (702), CPU time= 0.00 sec, 572 directives.
 Default parameters read. Elapsed time= 0.05 sec

 Checking input...
 Passed
1


                                         ***  PROGRAM SYSTEM MOLPRO  ***
                                       Copyright, TTI GmbH Stuttgart, 2015
                                    Version 2015.1 linked Aug  2 2018 18:31:50


 **********************************************************************************************************************************
 LABEL *   optimisation                                                                  
  64 bit serial version                                                                  DATE: 06-May-19          TIME: 10:16:07  
 **********************************************************************************************************************************

 SHA1:             c1281485f5ab15cf3ef7a6651587cbc70f616fdb
 **********************************************************************************************************************************


 Variable memory set to  100000000 words,  buffer space   230000 words

 SETTING GEOMTYP        =    XYZ
 ZSYMEL=NOSYM
 ZCENTRE=MASS
 ZUNIT=ANG
 
 SETTING BASIS          =    6-31G(D,P)


 Recomputing integrals since basis changed


 Using spherical harmonics

 Library entry C      S 6-31G                selected for orbital group  1
 Library entry C      P 6-31G                selected for orbital group  1
 Library entry C      D 6-31G*               selected for orbital group  1
 Library entry H      S 6-31G                selected for orbital group  2
 Library entry H      P 6-31G**              selected for orbital group  2
 Library entry N      S 6-31G                selected for orbital group  5
 Library entry N      P 6-31G                selected for orbital group  5
 Library entry N      D 6-31G*               selected for orbital group  5


 PROGRAM * SEWARD (Integral evaluation for generally contracted gaussian basis sets)     Author: Roland Lindh, 1990

 Geometry written to block  1 of record 700

 Orientation using atomic masses  
 Molecule type: Asymmetric top
 Rotational constants:       9.1667679      9.1688139    153.2442161 GHz  (calculated with average atomic masses)

 Point group  C1  



 ATOMIC COORDINATES

 NR  ATOM    CHARGE       X              Y              Z

   1  C       6.00   -0.001084943   -0.001018497   -2.444511621
   2  H       1.00    1.941077053   -0.341652733   -3.163209368
   3  C       6.00   -0.000109299   -0.000329713    0.314488263
   4  H       1.00   -1.266569291   -1.508506628   -3.142886505
   5  H       1.00   -0.669529879    1.863202134   -3.143939377
   6  N       7.00    0.000665870    0.000217540    2.506570362

 Bond lengths in Bohr (Angstrom)

 1-2  2.098702303  1-3  2.759000142  1-4  2.088467998  1-5  2.100318161  3-6  2.192082304
     ( 1.110585431)     ( 1.460000000)     ( 1.105169670)     ( 1.111440507)     ( 1.160000000)

 Bond angles

  1-3-6  180.00000000   2-1-3  110.00864239   2-1-4  109.21255096   2-1-5  108.93791299

  3-1-4  109.55978200   3-1-5  109.44496808   4-1-5  109.66213553


 BASIS DATA

   Nr Sym  Nuc  Type         Exponents   Contraction coefficients

    1.1 A     1  1s        3047.524900     0.001835
                            457.369520     0.014037
                            103.948680     0.068843
                             29.210155     0.232184
                              9.286663     0.467941
                              3.163927     0.362312
    2.1 A     1  1s           7.868272    -0.119332
                              1.881288    -0.160854
                              0.544249     1.143456
    3.1 A     1  1s           0.168714     1.000000
    4.1 A     1  2px          7.868272     0.068999
                              1.881288     0.316424
                              0.544249     0.744308
    5.1 A     1  2py          7.868272     0.068999
                              1.881288     0.316424
                              0.544249     0.744308
    6.1 A     1  2pz          7.868272     0.068999
                              1.881288     0.316424
                              0.544249     0.744308
    7.1 A     1  2px          0.168714     1.000000
    8.1 A     1  2py          0.168714     1.000000
    9.1 A     1  2pz          0.168714     1.000000
   10.1 A     1  3d0          0.800000     1.000000
   11.1 A     1  3d2-         0.800000     1.000000
   12.1 A     1  3d1+         0.800000     1.000000
   13.1 A     1  3d2+         0.800000     1.000000
   14.1 A     1  3d1-         0.800000     1.000000
   15.1 A     2  1s          18.731137     0.033495
                              2.825394     0.234727
                              0.640122     0.813757
   16.1 A     2  1s           0.161278     1.000000
   17.1 A     2  2px          1.100000     1.000000
   18.1 A     2  2py          1.100000     1.000000
   19.1 A     2  2pz          1.100000     1.000000
   20.1 A     3  1s        3047.524900     0.001835
                            457.369520     0.014037
                            103.948680     0.068843
                             29.210155     0.232184
                              9.286663     0.467941
                              3.163927     0.362312
   21.1 A     3  1s           7.868272    -0.119332
                              1.881288    -0.160854
                              0.544249     1.143456
   22.1 A     3  1s           0.168714     1.000000
   23.1 A     3  2px          7.868272     0.068999
                              1.881288     0.316424
                              0.544249     0.744308
   24.1 A     3  2py          7.868272     0.068999
                              1.881288     0.316424
                              0.544249     0.744308
   25.1 A     3  2pz          7.868272     0.068999
                              1.881288     0.316424
                              0.544249     0.744308
   26.1 A     3  2px          0.168714     1.000000
   27.1 A     3  2py          0.168714     1.000000
   28.1 A     3  2pz          0.168714     1.000000
   29.1 A     3  3d0          0.800000     1.000000
   30.1 A     3  3d2-         0.800000     1.000000
   31.1 A     3  3d1+         0.800000     1.000000
   32.1 A     3  3d2+         0.800000     1.000000
   33.1 A     3  3d1-         0.800000     1.000000
   34.1 A     4  1s          18.731137     0.033495
                              2.825394     0.234727
                              0.640122     0.813757
   35.1 A     4  1s           0.161278     1.000000
   36.1 A     4  2px          1.100000     1.000000
   37.1 A     4  2py          1.100000     1.000000
   38.1 A     4  2pz          1.100000     1.000000
   39.1 A     5  1s          18.731137     0.033495
                              2.825394     0.234727
                              0.640122     0.813757
   40.1 A     5  1s           0.161278     1.000000
   41.1 A     5  2px          1.100000     1.000000
   42.1 A     5  2py          1.100000     1.000000
   43.1 A     5  2pz          1.100000     1.000000
   44.1 A     6  1s        4173.511500     0.001835
                            627.457910     0.013995
                            142.902090     0.068587
                             40.234329     0.232241
                             12.820213     0.469070
                              4.390437     0.360455
   45.1 A     6  1s          11.626362    -0.114961
                              2.716280    -0.169117
                              0.772218     1.145852
   46.1 A     6  1s           0.212032     1.000000
   47.1 A     6  2px         11.626362     0.067580
                              2.716280     0.323907
                              0.772218     0.740895
   48.1 A     6  2py         11.626362     0.067580
                              2.716280     0.323907
                              0.772218     0.740895
   49.1 A     6  2pz         11.626362     0.067580
                              2.716280     0.323907
                              0.772218     0.740895
   50.1 A     6  2px          0.212032     1.000000
   51.1 A     6  2py          0.212032     1.000000
   52.1 A     6  2pz          0.212032     1.000000
   53.1 A     6  3d0          0.800000     1.000000
   54.1 A     6  3d2-         0.800000     1.000000
   55.1 A     6  3d1+         0.800000     1.000000
   56.1 A     6  3d2+         0.800000     1.000000
   57.1 A     6  3d1-         0.800000     1.000000

 NUCLEAR CHARGE:                   22
 NUMBER OF PRIMITIVE AOS:         105
 NUMBER OF SYMMETRY AOS:          102
 NUMBER OF CONTRACTIONS:           57   (  57A   )
 NUMBER OF CORE ORBITALS:           3   (   3A   )
 NUMBER OF VALENCE ORBITALS:       15   (  15A   )


 NUCLEAR REPULSION ENERGY   58.17704024


 Eigenvalues of metric

         1 0.226E-02 0.831E-02 0.346E-01 0.482E-01 0.489E-01 0.108E+00 0.155E+00 0.155E+00


 Contracted 2-electron integrals neglected if value below      1.0D-11
 AO integral compression algorithm  1   Integral accuracy      1.0D-11

     6.291 MB (compressed) written to integral file ( 46.4%)


 NUMBER OF SORTED TWO-ELECTRON INTEGRALS:    1367031.     BUFFER LENGTH:  32768
 NUMBER OF SEGMENTS:   1  SEGMENT LENGTH:    1367031      RECORD LENGTH: 524288

 Memory used in sort:       1.92 MW

 SORT1 READ     1666178. AND WROTE     1285149. INTEGRALS IN      4 RECORDS. CPU TIME:     0.01 SEC, REAL TIME:     0.03 SEC
 SORT2 READ     1285149. AND WROTE     1367031. INTEGRALS IN     24 RECORDS. CPU TIME:     0.04 SEC, REAL TIME:     0.07 SEC

 FILE SIZES:   FILE 1:    26.4 MBYTE,  FILE 4:    16.8 MBYTE,   TOTAL:     43.2 MBYTE

 OPERATOR DM      FOR CENTER  0  COORDINATES:    0.000000    0.000000    0.000000


 **********************************************************************************************************************************
 DATASETS  * FILE   NREC   LENGTH (MB)   RECORD NAMES
              1      19       25.07       500      610      700      900      950      970     1000      129      960     1100   
                                          VAR    BASINP    GEOM    SYMINP    ZMAT    AOBASIS   BASIS     P2S    ABASIS      S 
                                         1400     1410     1200     1210     1080     1600     1650     1300     1700   
                                           T        V       H0       H01     AOSYM     SMH    MOLCAS    ERIS     OPER   

 PROGRAMS   *        TOTAL       INT
 CPU TIMES  *         0.30      0.22
 REAL TIME  *         0.58 SEC
 DISK USED  *        43.55 MB      
 **********************************************************************************************************************************


 PROGRAM * RHF-SCF (CLOSED SHELL)       Authors: W. Meyer, H.-J. Werner


 NUMBER OF ELECTRONS:      11+   11-    SPACE SYMMETRY=1    SPIN SYMMETRY: Singlet 
 CONVERGENCE THRESHOLDS:    1.00E-06 (Density)    1.00E-07 (Energy)
 MAX. NUMBER OF ITERATIONS:       60
 INTERPOLATION TYPE:            DIIS
 INTERPOLATION STEPS:              2 (START)      1 (STEP)
 LEVEL SHIFTS:                  0.00 (CLOSED)  0.00 (OPEN) 




   Atom=C  basis=MINAO             lmin=0  lmax=1
   Atom=H  basis=MINAO             lmin=0  lmax=0
   Atom=C  basis=MINAO             lmin=0  lmax=1
   Atom=H  basis=MINAO             lmin=0  lmax=0
   Atom=N  basis=MINAO             lmin=0  lmax=1

 Orbital guess generated from atomic densities. Full valence occupancy:   11

 Molecular orbital dump at record        2100.2

 Initial occupancy:  11

 ITERATION    DDIFF          GRAD             ENERGY        2-EL.EN.            DIPOLE MOMENTS         DIIS   ORB.
    1      0.000D+00      0.000D+00      -131.88500671    205.804655    0.00211    0.00418   -2.40789    0    start
    2      0.000D+00      0.803D-02      -131.91034963    204.797740    0.00111    0.00046   -1.23852    1    diag
    3      0.105D-01      0.634D-02      -131.92766565    204.947797    0.00046    0.00013   -1.66821    2    diag
    4      0.464D-02      0.109D-02      -131.92877910    205.067820    0.00037   -0.00009   -1.60841    3    diag
    5      0.167D-02      0.257D-03      -131.92884767    205.001704    0.00023   -0.00030   -1.61034    4    diag
    6      0.453D-03      0.689D-04      -131.92885213    205.011820    0.00021   -0.00030   -1.61049    5    diag
    7      0.134D-03      0.191D-04      -131.92885236    205.012368    0.00021   -0.00030   -1.61143    6    diag
    8      0.205D-04      0.555D-05      -131.92885238    205.011989    0.00021   -0.00030   -1.61160    7    diag
    9      0.846D-05      0.994D-06      -131.92885238    205.012134    0.00020   -0.00030   -1.61164    8    diag
   10      0.224D-05      0.147D-06      -131.92885238    205.012124    0.00020   -0.00030   -1.61164    9    orth
   11      0.427D-06      0.397D-07      -131.92885238    205.012124    0.00020   -0.00030   -1.61164    0    orth

 Final occupancy:  11

 !RHF STATE 1.1 Energy               -131.928852382910
 Nuclear energy                        58.17704024
 One-electron energy                 -292.61195477
 Two-electron energy                  102.50606215
 Virial quotient                       -1.00277840
 !RHF STATE 1.1 Dipole moment           0.00020469    -0.00030021    -1.61163557
 Dipole moment /Debye                   0.00052023    -0.00076301    -4.09610073

 ELECTRON ORBITALS
 =================


   Orb  Occ    Energy  Couls-En    Coefficients

                                   1 1s      1 1s      1 1s      1 2px     1 2py     1 2pz     1 2px     1 2py     1 2pz     1 3d0  
                                   1 3d2-    1 3d1+    1 3d2+    1 3d1-    2 1s      2 1s      2 2px     2 2py     2 2pz     3 1s   
                                   3 1s      3 1s      3 2px     3 2py     3 2pz     3 2px     3 2py     3 2pz     3 3d0     3 3d2- 
                                   3 3d1+    3 3d2+    3 3d1-    4 1s      4 1s      4 2px     4 2py     4 2pz     5 1s      5 1s   
                                   5 2px     5 2py     5 2pz     6 1s      6 1s      6 1s      6 2px     6 2py     6 2pz     6 2px  
                                   6 2py     6 2pz     6 3d0     6 3d2-    6 3d1+    6 3d2+    6 3d1- 

   1.1   2   -15.5786  -44.4551 -0.000080 -0.000283  0.009295  0.000001 -0.000000  0.000591 -0.000000  0.000002  0.003605  0.000309
                                 0.000000 -0.000000  0.000000  0.000000 -0.000158 -0.000171  0.000011 -0.000002  0.000029  0.000237
                                -0.000145  0.008307 -0.000000 -0.000000 -0.001535  0.000005  0.000004  0.016037 -0.001295  0.000000
                                -0.000001 -0.000000 -0.000000 -0.000155 -0.000176 -0.000006 -0.000008  0.000033 -0.000155 -0.000176
                                -0.000004  0.000010  0.000032  0.996275  0.024407 -0.023842 -0.000002 -0.000001 -0.003064  0.000003
                                 0.000002  0.007588  0.000973 -0.000000  0.000000 -0.000000  0.000000

   2.1   2   -11.2914  -34.2431  0.995446  0.025982 -0.017992  0.000001 -0.000001  0.000530 -0.000006  0.000001 -0.001835 -0.000131
                                 0.000008 -0.000003 -0.000004  0.000004 -0.000010  0.002716  0.000378 -0.000067 -0.000082  0.038459
                                 0.000335  0.005029 -0.000001  0.000000  0.000197  0.000011 -0.000002 -0.002874 -0.000566 -0.000001
                                -0.000002  0.000001  0.000000 -0.000023  0.002741 -0.000245 -0.000289 -0.000083 -0.000009  0.002711
                                -0.000132  0.000361 -0.000083 -0.000010  0.000300  0.000115  0.000001 -0.000000 -0.000175 -0.000005
                                 0.000001  0.000360  0.000061  0.000000  0.000001 -0.000000  0.000000

   3.1   2   -11.2821  -35.3310 -0.038647 -0.002166  0.009993  0.000000 -0.000001 -0.000698  0.000010  0.000001  0.004626 -0.000900
                                 0.000000 -0.000000  0.000001 -0.000000 -0.000379  0.000308  0.000013 -0.000003  0.000051  0.995289
                                 0.024555 -0.006058 -0.000002  0.000001 -0.000159  0.000004  0.000002  0.012471  0.002138 -0.000000
                                 0.000002  0.000000  0.000001 -0.000377  0.000320 -0.000008 -0.000009  0.000060 -0.000376  0.000318
                                -0.000006  0.000013  0.000061 -0.000878  0.000371 -0.010322  0.000001 -0.000000  0.000506  0.000002
                                 0.000001  0.003852 -0.000143  0.000000 -0.000000 -0.000000 -0.000000

   4.1   2    -1.2150  -11.8546 -0.035282  0.070033 -0.005384 -0.000065 -0.000056  0.034173 -0.000017  0.000003 -0.020842  0.004956
                                 0.000019 -0.000005 -0.000021  0.000004  0.016976 -0.000297 -0.001653  0.000288  0.000558 -0.154971
                                 0.286398  0.107477  0.000024  0.000048  0.182865 -0.000076 -0.000025 -0.090388  0.028357  0.000004
                                 0.000018 -0.000004  0.000016  0.017220 -0.000308  0.001086  0.001292  0.000536  0.017035 -0.000287
                                 0.000569 -0.001590  0.000529 -0.174958  0.348680  0.377297 -0.000051 -0.000047 -0.179954 -0.000012
                                -0.000017 -0.072282  0.020718  0.000001  0.000011 -0.000002  0.000009

   5.1   2    -1.0344  -10.0583 -0.184427  0.350256  0.338171 -0.000539 -0.000657  0.045678  0.000035  0.000004  0.013623  0.005527
                                 0.000122 -0.000082 -0.000078  0.000050  0.115464  0.028518 -0.010861  0.001889  0.004770 -0.043247
                                 0.096137  0.049871 -0.000156 -0.000108 -0.227542 -0.000127 -0.000044 -0.020531  0.012655  0.000009
                                 0.000031 -0.000013  0.000021  0.116960  0.028749  0.007152  0.008507  0.004745  0.115456  0.028567
                                 0.003732 -0.010430  0.004693  0.059543 -0.125898 -0.111356 -0.000037  0.000005  0.046502  0.000029
                                 0.000012  0.007096 -0.008145 -0.000001  0.000001  0.000002 -0.000002

   6.1   2    -0.6930   -9.4025  0.043375 -0.074709 -0.171960 -0.001693  0.003848  0.373797 -0.001010  0.001513  0.125833  0.031435
                                -0.000200  0.000211 -0.000174 -0.000143 -0.117316 -0.075949  0.008096 -0.001373  0.002411 -0.117239
                                 0.245429  0.258737 -0.000543  0.000817 -0.243079 -0.000110  0.000265 -0.129546  0.013360 -0.000009
                                 0.000019 -0.000011 -0.000058 -0.116196 -0.075123 -0.005256 -0.006165  0.002596 -0.112085 -0.072743
                                -0.002697  0.007473  0.002657  0.067110 -0.151298 -0.151014 -0.000317  0.000469 -0.071758 -0.000230
                                 0.000248 -0.054020 -0.000395  0.000001  0.000047  0.000002 -0.000073

   7.1   2    -0.6241   -8.3876 -0.000296  0.000204  0.002827  0.212564  0.360804 -0.001518  0.108953  0.185170 -0.000531 -0.000074
                                -0.022793 -0.003395  0.000077 -0.005582  0.088118  0.065972 -0.002729  0.006147  0.002390  0.000404
                                -0.000785 -0.000973  0.079455  0.135293  0.000458  0.031673  0.053980  0.001134 -0.000046 -0.001543
                                -0.002797 -0.000008 -0.004769 -0.246517 -0.183856 -0.007459 -0.007347 -0.006683  0.160395  0.120090
                                 0.006615 -0.004937  0.004299 -0.000257  0.000639  0.000143  0.051606  0.087902  0.000540  0.029482
                                 0.050193  0.000502 -0.000011  0.000097 -0.006789 -0.000000 -0.011560

   8.1   2    -0.6217   -8.3814  0.000328 -0.000601 -0.001204  0.360034 -0.211525  0.002359  0.185709 -0.109252  0.000791  0.000459
                                 0.000109 -0.005678  0.022747  0.003231  0.232974  0.175558 -0.010052 -0.000364  0.006451 -0.001401
                                 0.003051  0.003236  0.136772 -0.080614 -0.001776  0.054955 -0.032418 -0.001188  0.000137  0.000020
                                -0.004620  0.001515  0.002727 -0.042860 -0.032293  0.003364 -0.005196 -0.001117 -0.193352 -0.145886
                                 0.000802  0.009063 -0.005187  0.000959 -0.002150 -0.002954  0.089457 -0.052745 -0.002223  0.051180
                                -0.030163 -0.001288  0.000083 -0.000001 -0.011712 -0.000109  0.006903

   9.1   2    -0.5495   -9.4588 -0.007066  0.012365  0.085461  0.001272 -0.000676  0.146190  0.000690 -0.000441  0.101312  0.009798
                                -0.000013  0.000042  0.000071 -0.000020 -0.029344 -0.026358  0.001698 -0.000307  0.001672  0.051211
                                -0.105257 -0.006523  0.000742 -0.000659 -0.284720  0.000473 -0.000288  0.054899  0.002426 -0.000001
                                -0.000000  0.000005 -0.000006 -0.029869 -0.026850 -0.001087 -0.001324  0.001732 -0.030232 -0.027274
                                -0.000577  0.001640  0.001698 -0.099267  0.230154  0.336451  0.000720 -0.000331  0.498817  0.000409
                                -0.000194  0.304543 -0.029817 -0.000000 -0.000090 -0.000001  0.000041

  10.1   2    -0.4551   -9.2704 -0.000043  0.000230 -0.000516 -0.082080 -0.112767  0.000076 -0.061651 -0.084859  0.000072 -0.000038
                                 0.010452  0.010018 -0.001060  0.013693 -0.048306 -0.047435  0.001251 -0.001984 -0.000461  0.000030
                                -0.000057 -0.000325  0.210478  0.289449 -0.000040  0.142930  0.196588 -0.000358 -0.000007  0.000864
                                 0.020717 -0.000095  0.028521  0.109621  0.106966  0.002397  0.002653  0.000996 -0.061633 -0.060394
                                -0.002179  0.001398 -0.000546 -0.000013  0.000008  0.000326  0.253796  0.349247 -0.000266  0.165393
                                 0.227606 -0.000266  0.000034 -0.000005 -0.023512 -0.000005 -0.032344

  11.1   2    -0.4548   -9.2631 -0.000093  0.000159  0.000301 -0.114096  0.082851 -0.000441 -0.085778  0.062406 -0.000234 -0.000155
                                -0.001068  0.013791 -0.010560 -0.009963 -0.099719 -0.098085  0.003351  0.000293 -0.000990  0.000207
                                -0.000455 -0.001187  0.288846 -0.209962  0.000860  0.196239 -0.142670  0.000087 -0.000011 -0.000080
                                 0.028514 -0.000866 -0.020749  0.008212  0.008186 -0.001331  0.001465  0.000073  0.092259  0.090839
                                -0.000002 -0.003260  0.000844 -0.000007  0.000009  0.000145  0.348745 -0.253668 -0.000635  0.227351
                                -0.165376 -0.000469  0.000052  0.000002 -0.032290 -0.000036  0.023478

 HOMO     11.1    -0.454838 =     -12.3768eV
 LUMO     12.1     0.200008 =       5.4425eV
 LUMO-HOMO         0.654846 =      17.8193eV


 **********************************************************************************************************************************
 DATASETS  * FILE   NREC   LENGTH (MB)   RECORD NAMES
              1      19       25.07       500      610      700      900      950      970     1000      129      960     1100   
                                          VAR    BASINP    GEOM    SYMINP    ZMAT    AOBASIS   BASIS     P2S    ABASIS      S 
                                         1400     1410     1200     1210     1080     1600     1650     1300     1700   
                                           T        V       H0       H01     AOSYM     SMH    MOLCAS    ERIS     OPER   

              2       4        2.90       700     1000      520     2100   
                                         GEOM     BASIS   MCVARS     RHF  

 PROGRAMS   *        TOTAL       RHF       INT
 CPU TIMES  *         0.49      0.18      0.22
 REAL TIME  *         0.84 SEC
 DISK USED  *        43.55 MB      
 **********************************************************************************************************************************


 PROGRAM * MP2 (Closed-shell)     Authors: C. Hampel, H.-J. Werner, 1991, M. Deegan, P.J. Knowles, 1992


 Convergence thresholds:  THRVAR = 1.00D-12  THRDEN = 1.00D-08

 Number of core orbitals:           3 (   3 )
 Number of closed-shell orbitals:   8 (   8 )
 Number of external orbitals:      46 (  46 )

 Molecular orbitals read from record     2100.2  Type=RHF/CANONICAL (state 1.1)

 Number of N-1 electron functions:               8
 Number of N-2 electron functions:              36
 Number of singly external CSFs:               368
 Number of doubly external CSFs:             67896
 Total number of CSFs:                       68265

 Length of J-op  integral file:               0.00 MB
 Length of K-op  integral file:               0.25 MB

 Integral transformation finished. Total CPU:   0.02 sec, npass=  1  Memory used:   0.31 MW

 Memory needed for MP2:                      0.02 MW

 SCS-MP2 correlation energy:           -0.419688321097   (PS=  1.200000  PT=  0.333333)
 SCS-MP2 total energy:               -132.348540704008


  Reference energy                   -131.928852382911
  MP2 singlet pair energy              -0.268521688042
  MP2 triplet pair energy              -0.156635831967
  MP2 correlation energy               -0.425157520009

 !MP2 total energy                   -132.354009902920

 KEXT needed  1 integral passes. Memory used:   0.29 MW  CPU time:      0.03 sec


 Starting Coupled-perturbed Hartree-Fock, convergence threshold= 1.0D-06

 ITER   MIC  DIIS      VAR         VARC       CPU
   1     0     1    0.45D-01    0.21D-02     0.01
   2     5     2    0.32D-03    0.17D-03     0.02
   3     3     3    0.18D-04    0.23D-05     0.03
   4     4     4    0.68D-06    0.18D-06     0.04

 CPHF convergence reached in  4 macroiterations and   12 microiterations.   Accuracy: 6.7824D-07

 CPHF solution written to record  4101.2

 Dipole moments (unrelaxed):            0.00020329    -0.00029601    -1.57838770
 Orbital relaxation contribution:       0.00003293     0.00024223     0.12656823
 !!MP2 STATE 1.1 Dipole moment          0.00023622    -0.00005378    -1.45181947
 Dipole moment /Debye                   0.00060037    -0.00013669    -3.68991532
 
 CPU-time for density and lagrangian:                  0.02 sec
 CPU-time for coupled-perturbed hartree-fock:          0.04 sec

 MP2 Gradient info saved on record         5200.1


 **********************************************************************************************************************************
 DATASETS  * FILE   NREC   LENGTH (MB)   RECORD NAMES
              1      21       27.23       500      610      700      900      950      970     1000      129      960     1100   
                                          VAR    BASINP    GEOM    SYMINP    ZMAT    AOBASIS   BASIS     P2S    ABASIS      S 
                                         1400     1410     1200     1210     1080     1600     1650     1300     1700     1380   
                                           T        V       H0       H01     AOSYM     SMH    MOLCAS    ERIS     OPER     JKOP   
                                         5200   
                                          MP2  

              2       6        3.02       700     1000      520     2100     4100     4101   
                                         GEOM     BASIS   MCVARS     RHF     CPHF     CPHF   

 PROGRAMS   *        TOTAL       MP2       RHF       INT
 CPU TIMES  *         0.64      0.14      0.18      0.22
 REAL TIME  *         1.09 SEC
 DISK USED  *        43.55 MB      
 **********************************************************************************************************************************


 PROGRAM * OPT (Geometry optimization)     Authors: F. Eckert and H.-J. Werner


 BFGS update of hessian

 *** Long output written to logfile /scratch_p/cours/31321/molpro.log ***


 Geometry optimization using default procedure for command MP2

 Geometry written to block  1 of record 700

 XYZ inputs for each point on the optimization path will be saved in files ch3cn_xx.xyz

 Making model hessian for cartesian coordinates

 Entering Rational Function Geometry Optimization

 ITER.   ENERGY(OLD)    ENERGY(NEW)      DE          GRADMAX     GRADNORM    GRADRMS     STEPMAX     STEPLEN     STEPRMS   CPU-time
   1  -132.35400990  -132.35572170    -0.00171180  0.05675982  0.06845280  0.00570440  0.05673193  0.07847237  0.03203621      1.10
   2  -132.35572170  -132.30049172     0.05522998  0.00666536  0.00776439  0.00064703  0.23428080  0.30000000  0.12247449      2.24
   3  -132.30049172  -132.35002551    -0.04953379  0.26564104  0.32708300  0.02725692  0.16625828  0.25192340  0.10284730      3.38
   4  -132.35002551  -132.35135786    -0.00133235  0.07146375  0.09451600  0.00787633  0.25368106  0.30000000  0.12247449      4.47
   5  -132.35135786  -132.35574614    -0.00438829  0.04182049  0.07060726  0.00588394  0.14524738  0.16354394  0.06676653      5.57
   6  -132.35574614  -132.35576911    -0.00002297  0.00423290  0.00630582  0.00052548  0.01062369  0.01642351  0.00670487      6.68
   7  -132.35576911  -132.35536985     0.00039926  0.00337302  0.00401774  0.00033481  0.04361014  0.05050277  0.02061767      7.79
   8  -132.35536985  -132.34578218     0.00958767  0.01445817  0.01968944  0.00164079  0.25224058  0.30000000  0.12247449      8.91
   9  -132.34578218  -132.35569191    -0.00990973  0.06163050  0.08152704  0.00679392  0.20189597  0.22877124  0.09339547     10.01
  10  -132.35569191  -132.35577457    -0.00008267  0.00579730  0.00777483  0.00064790  0.01547866  0.02264569  0.00924506     11.09
  11  -132.35577457  -132.35575328     0.00002129  0.00085618  0.00095720  0.00007977  0.01685571  0.01767651  0.00721641     12.16
  12  -132.35575328  -132.35577565    -0.00002237  0.00228609  0.00369893  0.00030824  0.01899937  0.01919596  0.00783672     13.28
  13  -132.35577565  -132.34817091     0.00760474  0.00041252  0.00055350  0.00004612  0.28299111  0.30000000  0.12247449     14.41
  14  -132.34817091  -132.35171195    -0.00354104  0.04760691  0.08278101  0.00689842  0.19713673  0.30000000  0.12247449     15.53
  15  -132.35171195  -132.34305673     0.00865522  0.04176087  0.07036219  0.00586352  0.17591097  0.30000000  0.12247449     16.62
  16  -132.34305673  -132.35338287    -0.01032614  0.10561465  0.15058982  0.01254915  0.25586197  0.30000000  0.12247449     17.71
  17  -132.35338287  -132.34726245     0.00612043  0.02511588  0.04159722  0.00346643  0.25838349  0.30000000  0.12247449     18.83
  18  -132.34726245  -132.35072645    -0.00346400  0.06179069  0.10814289  0.00901191  0.24764961  0.30000000  0.12247449     19.92
  19  -132.35072645  -132.35507747    -0.00435103  0.06704272  0.07854827  0.00654569  0.09278790  0.15640765  0.06385316     21.03
  20  -132.35507747  -132.34192193     0.01315555  0.02029225  0.02886183  0.00240515  0.24528287  0.30000000  0.12247449     22.12
  21  -132.34192193  -132.35543296    -0.01351104  0.06628492  0.09880245  0.00823354  0.25778146  0.30000000  0.12247449     23.23
  22  -132.35543296  -132.35574965    -0.00031669  0.01106455  0.01762814  0.00146901  0.03971153  0.05807173  0.02370769     24.34
  23  -132.35574965  -132.35577017    -0.00002052  0.00388296  0.00560384  0.00046699  0.00720921  0.01044598  0.00426455     25.44
  24  -132.35577017  -132.34266698     0.01310319  0.00099725  0.00183157  0.00015263  0.24846370  0.30000000  0.12247449     26.57
  25  -132.34266698  -132.35548644    -0.01281947  0.07023606  0.08981852  0.00748488  0.26170281  0.30000000  0.12247449     27.71
  26  -132.35548644  -132.34236115     0.01312529  0.01768563  0.02123169  0.00176931  0.25053682  0.30000000  0.12247449     28.82
  27  -132.34236115  -132.32180716     0.02055399  0.06992241  0.09270003  0.00772500  0.23299543  0.30000000  0.12247449     29.92
  28  -132.32180716  -132.32744880    -0.00564164  0.10044797  0.14584765  0.01215397  0.24117290  0.30000000  0.12247449     31.03
  29  -132.32744880  -132.34830027    -0.02085147  0.10413452  0.11330385  0.00944199  0.27025874  0.30000000  0.12247449     32.14
  30  -132.34830027  -132.35461475    -0.00631448  0.05642928  0.07948815  0.00662401  0.18182137  0.26185861  0.10690333     33.24
  31  -132.35461475  -132.33240732     0.02220743  0.03462535  0.04406317  0.00367193  0.23211371  0.30000000  0.12247449     34.36
  32  -132.33240732  -132.34379597    -0.01138865  0.18596033  0.19983614  0.01665301  0.26280540  0.28500526  0.11635291     35.48
  33  -132.34379597  -132.35204559    -0.00824962  0.06455639  0.09154957  0.00762913  0.25068693  0.30000000  0.12247449     36.62
  34  -132.35204559  -132.34919751     0.00284808  0.08487259  0.08656343  0.00721362  0.20276609  0.30000000  0.12247449     37.78
  35  -132.34919751  -132.35560227    -0.00640476  0.07764714  0.09200486  0.00766707  0.13824039  0.22167849  0.09049987     38.92
  36  -132.35560227  -132.34842948     0.00717279  0.00832978  0.01189294  0.00099108  0.18394860  0.23439122  0.09568981     40.02
  37  -132.34842948  -132.35430172    -0.00587224  0.05319575  0.06849549  0.00570796  0.25735857  0.30000000  0.12247449     41.12
  38  -132.35430172  -132.35571322    -0.00141150  0.03016049  0.04010605  0.00334217  0.07522498  0.09672696  0.03948862     42.22
  39  -132.35571322  -132.35503048     0.00068274  0.00664947  0.00843420  0.00070285  0.06055149  0.07218725  0.02947032     43.36
  40  -132.35503048  -132.34566262     0.00936786  0.01926821  0.02728786  0.00227399  0.25343208  0.30000000  0.12247449     44.48
  41  -132.34566262  -132.35508100    -0.00941838  0.06316753  0.08765492  0.00730458  0.26438675  0.30000000  0.12247449     45.59
  42  -132.35508100  -132.34693400     0.00814700  0.01759058  0.02485754  0.00207146  0.26142151  0.30000000  0.12247449     46.70
  43  -132.34693400  -132.35560040    -0.00866640  0.05895515  0.07645232  0.00637103  0.21717751  0.24153475  0.09860615     47.81
  44  -132.35560040  -132.35576347    -0.00016307  0.01325350  0.01611636  0.00134303  0.02425205  0.02861974  0.01168396     48.93
  45  -132.35576347  -132.35557725     0.00018622  0.00371183  0.00444065  0.00037005  0.02865842  0.03807575  0.01554436     50.02
  46  -132.35557725  -132.35335317     0.00222408  0.00896765  0.01288311  0.00107359  0.12368490  0.14947005  0.06102089     51.11
  47  -132.35335317  -132.35542114    -0.00206797  0.03700972  0.04979829  0.00414986  0.05705496  0.07001720  0.02858440     52.20
  48  -132.35542114  -132.34621344     0.00920770  0.01287053  0.01806295  0.00150525  0.24437879  0.30000000  0.12247449     53.30
  49  -132.34621344  -132.35521663    -0.00900319  0.06045157  0.07828476  0.00652373  0.25897864  0.30000000  0.12247449     54.42
  50  -132.35521663  -132.35577326    -0.00055663  0.01851559  0.02462835  0.00205236  0.04542561  0.05596449  0.02284741     55.52
  51  -132.35577326  -132.35577468    -0.00000142  0.00098511  0.00135384  0.00011282  0.00516519  0.00626227  0.00255656     56.64
  52  -132.35577468  -132.34244227     0.01333241  0.00084709  0.00110255  0.00009188  0.25137473  0.30000000  0.12247449     57.76
  53  -132.34244227  -132.35565838    -0.01321611  0.07075242  0.09131592  0.00760966  0.24018554  0.26929660  0.10993988     58.88
  54  -132.35565838  -132.35577436    -0.00011597  0.00595052  0.00750891  0.00062574  0.03359830  0.03914655  0.01598151     60.04
  55  -132.35577436  -132.34194977     0.01382459  0.00110895  0.00148844  0.00012404  0.25290109  0.30000000  0.12247449     61.17
  56  -132.34194977  -132.35566468    -0.01371491  0.07143095  0.09422992  0.00785249  0.24275993  0.27105047  0.11065589     62.31
  57  -132.35566468  -132.35576954    -0.00010486  0.00620743  0.00766161  0.00063847  0.03206638  0.03982662  0.01625915     63.40
  58  -132.35576954  -132.35577548    -0.00000594  0.00215761  0.00275176  0.00022931  0.00304463  0.00459423  0.00187559     64.48
  59  -132.35577548  -132.35577593    -0.00000045  0.00057196  0.00076477  0.00006373  0.00177283  0.00199811  0.00081573     65.59
  60  -132.35577593  -132.35576818     0.00000774  0.00005532  0.00009184  0.00000765  0.00569504  0.00695070  0.00283761     67.02
  61  -132.35576818  -132.34304730     0.01272088  0.00188082  0.00262961  0.00021913  0.24859644  0.30000000  0.12247449     68.14
  62  -132.34304730  -132.35295330    -0.00990600  0.06932020  0.08886199  0.00740517  0.22856697  0.30000000  0.12247449     69.27
  63  -132.35295330  -132.30458351     0.04836979  0.05038568  0.06110273  0.00509189  0.21603047  0.30000000  0.12247449     70.39
  64  -132.30458351  -132.32647032    -0.02188681  0.37879717  0.40239045  0.03353254  0.09775283  0.16058128  0.06555703     71.52
  65  -132.32647032  -132.34393902    -0.01746870  0.22250559  0.24307575  0.02025631  0.22847404  0.30000000  0.12247449     72.65
  66  -132.34393902  -132.34726299    -0.00332397  0.12436887  0.14751832  0.01229319  0.18710739  0.30000000  0.12247449     73.81
  67  -132.34726299  -132.34383400     0.00342898  0.08419127  0.12099728  0.01008311  0.19820745  0.30000000  0.12247449     74.98
  68  -132.34383400  -132.33705503     0.00677897  0.07783787  0.10837397  0.00903116  0.16466084  0.30000000  0.12247449     76.11
  69  -132.33705503  -132.35132729    -0.01427226  0.14370403  0.18525730  0.01543811  0.17383633  0.30000000  0.12247449     77.24
  70  -132.35132729  -132.34522192     0.00610537  0.04122429  0.05751858  0.00479321  0.20373221  0.30000000  0.12247449     78.37
  71  -132.34522192  -132.35113409    -0.00591217  0.06983836  0.10239339  0.00853278  0.16441051  0.30000000  0.12247449     79.52
  72  -132.35113409  -132.35164431    -0.00051022  0.06475557  0.08638327  0.00719861  0.18163337  0.30000000  0.12247449     80.68
  73  -132.35164431  -132.35486409    -0.00321979  0.03943347  0.06072860  0.00506072  0.06334565  0.11564928  0.04721362     81.81
  74  -132.35486409  -132.35018395     0.00468014  0.01757555  0.02756339  0.00229695  0.14803980  0.25503419  0.10411727     82.96
  75  -132.35018395  -132.35562254    -0.00543859  0.04785539  0.06825445  0.00568787  0.18396420  0.23380637  0.09545105     84.10
  76  -132.35562254  -132.35538827     0.00023427  0.00797778  0.01249686  0.00104141  0.02795861  0.05842342  0.02385126     85.25
  77  -132.35538827  -132.28838798     0.06700029  0.01840029  0.02508161  0.00209013  0.21440792  0.30000000  0.12247449     86.44
  78  -132.28838798  -132.28737011     0.00101787  0.60926873  0.62560797  0.05213400  0.22941198  0.30000000  0.12247449     87.57
  79  -132.28737011  -132.34581057    -0.05844047  0.44603546  0.48665725  0.04055477  0.17525783  0.30000000  0.12247449     88.70
  80  -132.34581057  -132.34629090    -0.00048032  0.17024431  0.18994092  0.01582841  0.24345872  0.30000000  0.12247449     89.84
  81  -132.34629090  -132.34212560     0.00416530  0.06459309  0.09360406  0.00780034  0.20488007  0.30000000  0.12247449     90.99
  82  -132.34212560  -132.35450476    -0.01237916  0.10594269  0.16290491  0.01357541  0.11049970  0.19166945  0.07824873     92.15
  83  -132.35450476  -132.35522528    -0.00072052  0.01990371  0.02695199  0.00224600  0.06838692  0.10152467  0.04144727     93.29
  84  -132.35522528  -132.35570340    -0.00047813  0.02781074  0.03258016  0.00271501  0.02389782  0.04108279  0.01677198     94.40
  85  -132.35570340  -132.35577030    -0.00006689  0.00700685  0.00891966  0.00074331  0.01668791  0.03094241  0.01263218     95.51
  86  -132.35577030  -132.35576886     0.00000144  0.00127017  0.00214054  0.00017838  0.00574136  0.00841275  0.00343449     96.61
  87  -132.35576886  -132.33917800     0.01659086  0.00171018  0.00233882  0.00019490  0.23571660  0.30000000  0.12247449     97.76
  88  -132.33917800  -132.35564137    -0.01646337  0.08729657  0.11783311  0.00981943  0.25603017  0.30000000  0.12247449     98.89
  89  -132.35564137  -132.35575966    -0.00011829  0.01036494  0.01474877  0.00122906  0.01207474  0.02822086  0.01152112    100.02
  90  -132.35575966  -132.33346189     0.02229777  0.00136969  0.00259895  0.00021658  0.26317294  0.30000000  0.12247449    101.19
  91  -132.33346189  -132.35389068    -0.02042878  0.12739708  0.15036924  0.01253077  0.20269382  0.25063324  0.10232059    102.39
  92  -132.35389068  -132.35066188     0.00322880  0.02734091  0.03616523  0.00301377  0.25891256  0.30000000  0.12247449    103.53
  93  -132.35066188  -132.35396698    -0.00330510  0.04874281  0.07045673  0.00587139  0.05808583  0.07701303  0.03144044    104.82
  94  -132.35396698  -132.34821052     0.00575646  0.03124362  0.03533569  0.00294464  0.27889186  0.30000000  0.12247449    106.02
  95  -132.34821052  -132.35374327    -0.00553274  0.05658934  0.07701129  0.00641761  0.27338777  0.30000000  0.12247449    107.16
  96  -132.35374327  -132.33851240     0.01523086  0.03350175  0.04582081  0.00381840  0.24518361  0.30000000  0.12247449    108.33
  97  -132.33851240  -132.35354947    -0.01503707  0.13426374  0.17150628  0.01429219  0.23980207  0.28984268  0.11832778    109.47
  98  -132.35354947  -132.35448890    -0.00093943  0.03547549  0.05459063  0.00454922  0.17590253  0.20763262  0.08476566    110.59
  99  -132.35448890  -132.35480116    -0.00031226  0.01627494  0.03095198  0.00257933  0.16355249  0.19078428  0.07788736    111.70
 100  -132.35480116  -132.34246619     0.01233498  0.02035430  0.02405011  0.00200418  0.23804708  0.30000000  0.12247449    112.91

 No convergence in max. number of iterations

 END OF GEOMETRY OPTIMIZATION.

 Current geometry (xyz format, in Angstrom)


 Dump information in style XYZ to ch3cn.xyz                                                                       

    6
 MP2/6-31G(D,P)  ENERGY=-132.34246619
 C          0.0028650032        0.0029615060       -1.2833295557
 H          0.5833362790       -0.8937514236       -1.7596345239
 C          0.0007400202        0.0013579939        0.1650354113
 H         -1.0675876684       -0.0884124637       -1.7738674062
 H          0.4539179291        0.9403631726       -1.7800737199
 N         -0.0009085386       -0.0006960169        1.3413292502

 **********************************************************************************************************************************

 Geometry written to block  1 of record 700


 **********************************************************************************************************************************
 DATASETS  * FILE   NREC   LENGTH (MB)   RECORD NAMES
              1      22       30.26       500      610      700      900      700(1)   950      970     1000      129      960   
                                          VAR    BASINP    GEOM    SYMINP    GEOM     ZMAT    AOBASIS   BASIS     P2S    ABASIS    
                                         1100     1400     1410     1200     1210     1080     1600     1650     1300     1700   
                                           S        T        V       H0       H01     AOSYM     SMH    MOLCAS    ERIS     OPER   
                                         1380     5200   
                                         JKOP      MP2  

              2       8        3.04       700     1000      520     2100     4100     4101     9001      700(1)
                                         GEOM     BASIS   MCVARS     RHF     CPHF     CPHF    DEN_MP2   GEOM   

 PROGRAMS   *        TOTAL      OPTG       MP2       RHF       INT
 CPU TIMES  *       113.55    112.91      0.14      0.18      0.22
 REAL TIME  *       142.58 SEC
 DISK USED  *        50.46 MB      
 **********************************************************************************************************************************


 PROGRAM * HESSIAN

 Computing numerical hessian using default procedure for command MP2

 Using no symmetry in wavefunction calculations

 Running default procedure: RHF-SCF000  MP2
 

 Numerically approximating hessian using central energy differences

 Task list generated. Total number of displacements:    342

   34 tasks completed, CPU=23s Elapsed=26s
   68 tasks completed, CPU=47s Elapsed=54s
  102 tasks completed, CPU=1m 10s Elapsed=1m 20s
  136 tasks completed, CPU=1m 34s Elapsed=1m 48s
  170 tasks completed, CPU=1m 57s Elapsed=2m 15s
  204 tasks completed, CPU=2m 21s Elapsed=2m 41s
  238 tasks completed, CPU=2m 44s Elapsed=3m 9s
  272 tasks completed, CPU=3m 8s Elapsed=3m 35s
  306 tasks completed, CPU=3m 32s Elapsed=4m 2s
  340 tasks completed, CPU=3m 55s Elapsed=4m 29s

 Numerical MP2 hessian completed. CPU-time:   237.28 sec, Elapsed:   271.04 sec

 MP2 hessian saved to record  5300.2

 PROGRAM * FREQUENCIES (Calculation of harmonuc vibrational spectra for MP2)


 Permanent Dipole Moment [debye]
   1-  3    0.000319   -0.003161   -3.696029

 Dipole Moment Norm    3.6960308 [debye]

 Dipole Moment Derivatives [debye/ang]
                   1             2             3             4             5             6             7             8
         1     0.8080952    -0.0032384     0.0091208     0.2429605     0.3294658     0.0694125     0.3171708    -0.0039948
         2    -0.0032149     0.7721263    -0.0014567     0.3295670    -0.0282731    -0.0929994    -0.0040807     0.3098994
         3     0.0085341    -0.0063873     0.3731102     0.1410439    -0.1885087     0.0287409     0.0028018     0.0077897
                   9            10            11            12            13            14            15            16
         1     0.0126163    -0.2618552    -0.0563706    -0.1338114     0.3393145    -0.2650359     0.0475601    -1.4457209
         2     0.0156616    -0.0564483     0.4626551    -0.0063050    -0.2650548    -0.0702774     0.0923851    -0.0007781
         3    -0.3335390    -0.2510001    -0.0099040     0.0241023     0.0981314     0.1935122     0.0457057     0.0004403
                  17            18
         1    -0.0007833    -0.0048965
         2    -1.4461443    -0.0072934
         3     0.0035551    -0.1379272

 Projecting out rotations and translations

   Low Vibration      Wavenumber
        Nr             [1/cm] 
        1                0.00
        2                0.00
        3                0.00
        4                0.00
        5                0.00
        6                0.00

     Vibration        Wavenumber
        Nr             [1/cm] 
        1              412.08
        2              416.20
        3              968.70
        4             1206.35
        5             1209.57
        6             1568.50
        7             1576.99
        8             1579.98
        9             2258.55
       10             2433.49
       11             2521.55
       12             2658.80

 FREQUENCIES * CALCULATION OF NORMAL MODES FOR MP2


 Atomic Coordinates

  Nr  Atom  Charge       X              Y              Z

   1   C     6.00    0.005414071    0.005596435   -2.425141388
   2   H     1.00    1.102345806   -1.688945414   -3.325227329
   3   C     6.00    0.001398436    0.002566236    0.311871728
   4   H     1.00   -2.017448307   -0.167075342   -3.352123579
   5   H     1.00    0.857780569    1.777028854   -3.363851812
   6   N     7.00   -0.001716889   -0.001315281    2.534744926

 Frequencies dumped to record   5400.2

 Gradient norm at reference geometry: 0.11108D+00

 ?WARNING: GRADIENT NORM NOT ZERO!

 Normal Modes

                              1 A         2 A         3 A         4 A         5 A  
 Wavenumbers [cm-1]          412.08      416.20      968.70     1206.35     1209.57
 Intensities [km/mol]          0.83        0.81        0.96        1.00        1.42
 Intensities [relative]       10.53       10.32       12.16       12.71       17.96
           CX1             -0.01562    -0.05488     0.00043    -0.06450    -0.11063
           CY1             -0.05389     0.01601     0.00039    -0.10830     0.06479
           CZ1              0.00057     0.00005     0.19165    -0.00265    -0.00031
           HX2             -0.02711    -0.11791     0.00520     0.17183     0.18471
           HY2             -0.12172     0.04514    -0.00947     0.18364    -0.04038
           HZ2              0.12134    -0.14192     0.24044    -0.26280     0.56369
           CX3              0.06474     0.22327    -0.00024     0.03331     0.05485
           CY3              0.22265    -0.06493    -0.00071     0.05763    -0.03312
           CZ3              0.00017     0.00025    -0.08132     0.00013    -0.00014
           HX4             -0.03862    -0.12823    -0.01140     0.06389     0.13599
           HY4             -0.11190     0.02945    -0.00104     0.22156    -0.15340
           HZ4              0.06544     0.17045     0.24529    -0.34537    -0.50348
           HX5             -0.04190    -0.11820     0.00451     0.09963     0.27261
           HY5             -0.13439     0.03074     0.01107     0.14399    -0.14536
           HZ5             -0.18668    -0.03201     0.24002     0.64355    -0.04893
           NX6             -0.03438    -0.11819    -0.00005     0.00261     0.00514
           NY6             -0.11823     0.03437     0.00024     0.00394    -0.00275
           NZ6             -0.00065    -0.00001    -0.14684    -0.00038    -0.00043

                              6 A         7 A         8 A         9 A        10 A  
 Wavenumbers [cm-1]         1568.50     1576.99     1579.98     2258.55     2433.49
 Intensities [km/mol]          7.41        6.77        2.58        0.18        7.89
 Intensities [relative]       93.90       85.73       32.74        2.31      100.00
           CX1             -0.05153    -0.00866     0.01146    -0.00017    -0.06661
           CY1              0.01135    -0.04813     0.02627    -0.00027    -0.00612
           CZ1             -0.01092    -0.06129    -0.11677    -0.03918    -0.03340
           HX2              0.33212     0.48127    -0.14376     0.00254    -0.05346
           HY2              0.33988     0.06777    -0.28846    -0.00583     0.02325
           HZ2             -0.23894     0.42825     0.31694    -0.01699     0.01113
           CX3             -0.01569    -0.00225     0.00181    -0.00035    -0.00017
           CY3              0.00379    -0.01290     0.00519    -0.00039     0.00001
           CZ3             -0.00003    -0.00072    -0.00160     0.22864    -0.00030
           HX4             -0.15323    -0.18640    -0.14780    -0.00425     0.88767
           HY4             -0.20276     0.58727    -0.31393    -0.00112     0.07384
           HZ4              0.39293     0.28362     0.34632    -0.01562     0.35457
           HX5              0.59533    -0.16546     0.15049     0.00497    -0.04624
           HY5             -0.30998     0.04322     0.25481     0.01099    -0.02437
           HZ5             -0.04389    -0.08330     0.53276    -0.02067     0.00816
           NX6              0.00193     0.00004    -0.00123     0.00021     0.00056
           NY6             -0.00054     0.00209    -0.00196     0.00027     0.00001
           NZ6              0.00147     0.00795     0.01544    -0.15863     0.00200

                             11 A        12 A  
 Wavenumbers [cm-1]         2521.55     2658.80
 Intensities [km/mol]          6.82        5.04
 Intensities [relative]       86.42       63.84
           CX1              0.04360    -0.02982
           CY1             -0.05370    -0.06783
           CZ1             -0.03236     0.03080
           HX2             -0.48186    -0.04838
           HY2              0.74532     0.03608
           HZ2              0.35500     0.02712
           CX3              0.00019    -0.00002
           CY3             -0.00021    -0.00006
           CZ3              0.00022    -0.00157
           HX4             -0.02644     0.01962
           HY4             -0.02804    -0.02119
           HZ4             -0.01767     0.01126
           HX5             -0.00836     0.38110
           HY5             -0.07969     0.78754
           HZ5              0.02577    -0.38022
           NX6             -0.00037     0.00023
           NY6              0.00035     0.00047
           NZ6              0.00143    -0.00046


 Normal Modes of low/zero frequencies

                                  1           2           3           4           5
 Wavenumbers [cm-1]            0.00        0.00        0.00        0.00        0.00
 Intensities [km/mol]          0.00        0.00        0.00        0.00        0.00
 Intensities [relative]        0.00        0.00        0.00        0.00        0.00
           CX1             -0.00527    -0.00410    -0.01659    -0.01631     0.08347
           CY1              0.22277     0.01372     0.00238     0.05993     0.00485
           CZ1             -0.00190    -0.00107    -0.00047     0.00473     0.14555
           HX2              0.12406     0.00514    -0.04978    -0.48742     0.10231
           HY2              0.35358    -0.00780     0.02401    -0.23076     0.00792
           HZ2             -0.09054     0.05070    -0.08165    -0.02214     0.16272
           CX3             -0.00726     0.04222     0.11549    -0.00329     0.03590
           CY3              0.07786     0.12724    -0.04327     0.02660     0.00179
           CZ3             -0.00207    -0.00088    -0.00033     0.00471     0.14547
           HX4              0.00859    -0.01728    -0.06027    -0.06854     0.09990
           HY4              0.11823    -0.05396     0.00560     0.62855     0.00206
           HZ4             -0.01267     0.04030     0.09425     0.01280     0.11020
           HX5             -0.13894    -0.04555    -0.07259     0.46666     0.09644
           HY5              0.33706    -0.01293     0.02317    -0.16294     0.00750
           HZ5              0.09238    -0.08900    -0.01208     0.02270     0.16234
           NX6             -0.00877     0.07986     0.22277     0.00690    -0.00272
           NY6             -0.03982     0.21944    -0.08033    -0.00051    -0.00070
           NZ6             -0.00228    -0.00066    -0.00025     0.00468     0.14542

                                  6
 Wavenumbers [cm-1]            0.00
 Intensities [km/mol]          0.00
 Intensities [relative]        0.00
           CX1              0.21439
           CY1              0.00858
           CZ1             -0.05611
           HX2              0.21883
           HY2             -0.01261
           HZ2             -0.01080
           CX3              0.09148
           CY3              0.00233
           CZ3             -0.05629
           HX4              0.25233
           HY4              0.05365
           HZ4             -0.14730
           HX5              0.29411
           HY5             -0.00733
           HZ5             -0.01375
           NX6             -0.00837
           NY6             -0.00276
           NZ6             -0.05644


 Zero point energy:  0.04285407 [H]     9405.38 [1/CM]      112.51 [KJ/MOL]
 Frequency information read from record  5400.2

 Dump information in style MOLDEN to test.molden                                                                     

 Molecular orbitals read from record     2100.2  Type=RHF/CANONICAL (state 1.1)
 Occupation numbers read from record     2100.2  Type=RHF/RHF (state 1.1)
 Orbital energies read from record       2100.2  Type=RHF/CANONICAL (state 1.1)
 Redundancy group numbers read from rec  2100.2  Type=RHF/RHF (state 1.1)
 
 DUMP ORBITAL  1.1 AS ORBITAL    1  occ=    2.0000  eig=  -15.5884  GROUP=   2
 DUMP ORBITAL  2.1 AS ORBITAL    2  occ=    2.0000  eig=  -11.3082  GROUP=   2
 DUMP ORBITAL  3.1 AS ORBITAL    3  occ=    2.0000  eig=  -11.2925  GROUP=   2
 DUMP ORBITAL  4.1 AS ORBITAL    4  occ=    2.0000  eig=   -1.2108  GROUP=   2
 DUMP ORBITAL  5.1 AS ORBITAL    5  occ=    2.0000  eig=   -1.0211  GROUP=   2
 DUMP ORBITAL  6.1 AS ORBITAL    6  occ=    2.0000  eig=   -0.7067  GROUP=   2
 DUMP ORBITAL  7.1 AS ORBITAL    7  occ=    2.0000  eig=   -0.6017  GROUP=   2
 DUMP ORBITAL  8.1 AS ORBITAL    8  occ=    2.0000  eig=   -0.5942  GROUP=   2
 DUMP ORBITAL  9.1 AS ORBITAL    9  occ=    2.0000  eig=   -0.5550  GROUP=   2
 DUMP ORBITAL 10.1 AS ORBITAL   10  occ=    2.0000  eig=   -0.4511  GROUP=   2
 DUMP ORBITAL 11.1 AS ORBITAL   11  occ=    2.0000  eig=   -0.4495  GROUP=   2

 Total charge:      22.000000
 Frequency information read from record  5400.2

 **********************************************************************************************************************************

 MP2/6-31G(D,P) energy=   -132.342466184839

       OPTG(MP2)        MP2             RHF-SCF 
   -132.34246619   -132.35400990   -131.92885238
 **********************************************************************************************************************************
 Molpro calculation terminated
 Variable memory released
