 Entering Gaussian System, Link 0=g09
 Initial command:
 /apps/gaussian/g09/l1.exe /scratch_l/henon/hhn3_1334/Gau-1351.inp -scrdir=/scratch_l/henon/hhn3_1334/
 Entering Link 1 = /apps/gaussian/g09/l1.exe PID=      1352.
  
 Copyright (c) 1988,1990,1992,1993,1995,1998,2003,2009, Gaussian, Inc.
                  All Rights Reserved.
  
 This is part of the Gaussian(R) 09 program.  It is based on
 the Gaussian(R) 03 system (copyright 2003, Gaussian, Inc.),
 the Gaussian(R) 98 system (copyright 1998, Gaussian, Inc.),
 the Gaussian(R) 94 system (copyright 1995, Gaussian, Inc.),
 the Gaussian 92(TM) system (copyright 1992, Gaussian, Inc.),
 the Gaussian 90(TM) system (copyright 1990, Gaussian, Inc.),
 the Gaussian 88(TM) system (copyright 1988, Gaussian, Inc.),
 the Gaussian 86(TM) system (copyright 1986, Carnegie Mellon
 University), and the Gaussian 82(TM) system (copyright 1983,
 Carnegie Mellon University). Gaussian is a federally registered
 trademark of Gaussian, Inc.
  
 This software contains proprietary and confidential information,
 including trade secrets, belonging to Gaussian, Inc.
  
 This software is provided under written license and may be
 used, copied, transmitted, or stored only in accord with that
 written license.
  
 The following legend is applicable only to US Government
 contracts under FAR:
  
                    RESTRICTED RIGHTS LEGEND
  
 Use, reproduction and disclosure by the US Government is
 subject to restrictions as set forth in subparagraphs (a)
 and (c) of the Commercial Computer Software - Restricted
 Rights clause in FAR 52.227-19.
  
 Gaussian, Inc.
 340 Quinnipiac St., Bldg. 40, Wallingford CT 06492
  
  
 ---------------------------------------------------------------
 Warning -- This program may not be used in any manner that
 competes with the business of Gaussian, Inc. or will provide
 assistance to any competitor of Gaussian, Inc.  The licensee
 of this program is prohibited from giving any competitor of
 Gaussian, Inc. access to this program.  By using this program,
 the user acknowledges that Gaussian, Inc. is engaged in the
 business of creating and licensing software in the field of
 computational chemistry and represents and warrants to the
 licensee that it is not a competitor of Gaussian, Inc. and that
 it will not use this program in any manner prohibited above.
 ---------------------------------------------------------------
  

 Cite this work as:
 Gaussian 09, Revision A.02,
 M. J. Frisch, G. W. Trucks, H. B. Schlegel, G. E. Scuseria, 
 M. A. Robb, J. R. Cheeseman, G. Scalmani, V. Barone, B. Mennucci, 
 G. A. Petersson, H. Nakatsuji, M. Caricato, X. Li, H. P. Hratchian, 
 A. F. Izmaylov, J. Bloino, G. Zheng, J. L. Sonnenberg, M. Hada, 
 M. Ehara, K. Toyota, R. Fukuda, J. Hasegawa, M. Ishida, T. Nakajima, 
 Y. Honda, O. Kitao, H. Nakai, T. Vreven, J. A. Montgomery, Jr., 
 J. E. Peralta, F. Ogliaro, M. Bearpark, J. J. Heyd, E. Brothers, 
 K. N. Kudin, V. N. Staroverov, R. Kobayashi, J. Normand, 
 K. Raghavachari, A. Rendell, J. C. Burant, S. S. Iyengar, J. Tomasi, 
 M. Cossi, N. Rega, J. M. Millam, M. Klene, J. E. Knox, J. B. Cross, 
 V. Bakken, C. Adamo, J. Jaramillo, R. Gomperts, R. E. Stratmann, 
 O. Yazyev, A. J. Austin, R. Cammi, C. Pomelli, J. W. Ochterski, 
 R. L. Martin, K. Morokuma, V. G. Zakrzewski, G. A. Voth, 
 P. Salvador, J. J. Dannenberg, S. Dapprich, A. D. Daniels, 
 O. Farkas, J. B. Foresman, J. V. Ortiz, J. Cioslowski, 
 and D. J. Fox, Gaussian, Inc., Wallingford CT, 2009.
 
 ******************************************
 Gaussian 09:  AM64L-G09RevA.02 11-Jun-2009
                25-Apr-2014 
 ******************************************
 %NPROC=12
 Will use up to   12 processors via shared memory.
 %MEM=500MB
 ----------------------------------------------------------------------
 #P M06 6-311G** OPT=(TS, CALCFC, NOEIGENTEST, MAXCYC=40) FREQ # GFINPU
 T IOP(6/7=3) POP=FULL
 ----------------------------------------------------------------------
 1/5=1,6=40,10=4,11=1,14=-1,18=20,26=3,38=1/1,3;
 2/9=110,12=2,17=6,18=5,40=1/2;
 3/5=4,6=6,7=101,11=2,16=1,24=10,25=1,30=1,71=2,74=-54/1,2,3;
 4//1;
 5/5=2,38=5/2;
 8/6=4,10=90,11=11/1;
 11/6=1,8=1,9=11,15=111,16=1/1,2,10;
 10/6=1,7=6,13=1/2;
 6/7=3,28=1/1;
 7/10=1,18=20,25=1/1,2,3,16;
 1/5=1,6=40,10=4,11=1,14=-1,18=20/3(2);
 2/9=110/2;
 99//99;
 2/9=110/2;
 3/5=4,6=6,7=101,11=2,16=1,25=1,30=1,71=1,74=-54/1,2,3;
 4/5=5,16=3/1;
 5/5=2,38=5/2;
 7//1,2,3,16;
 1/5=1,6=40,11=1,14=-1,18=20/3(-5);
 2/9=110/2;
 6/7=3,19=2,28=1/1;
 99/9=1/99;
 Leave Link    1 at Fri Apr 25 16:32:11 2014, MaxMem=   65536000 cpu:       0.3
 (Enter /apps/gaussian/g09/l101.exe)
 --
 TS
 --
 Symbolic Z-matrix:
 Charge =  0 Multiplicity = 2
 7                     0.03112  -0.07175  -0.00112 
 7                    -0.00469   0.03765   1.14328 
 7                     0.46647   0.03572  -1.17951 
 1                    -0.29112   0.00387  -1.8591 
 1                     1.38237   1.32459  -1.57139 
 
 NAtoms=      5 NQM=      5 NQMF=      0 NMic=      0 NMicF=      0 NTot=      5.
                    Isotopes and Nuclear Properties:
 (Nuclear quadrupole moments (NQMom) in fm**2, nuclear magnetic moments (NMagM)
  in nuclear magnetons)

  Atom         1           2           3           4           5
 IAtWgt=          14          14          14           1           1
 AtmWgt=  14.0030740  14.0030740  14.0030740   1.0078250   1.0078250
 NucSpn=           2           2           2           1           1
 AtZEff=   0.0000000   0.0000000   0.0000000   0.0000000   0.0000000
 NQMom=    2.0440000   2.0440000   2.0440000   0.0000000   0.0000000
 NMagM=    0.4037610   0.4037610   0.4037610   2.7928460   2.7928460
 Leave Link  101 at Fri Apr 25 16:32:11 2014, MaxMem=   65536000 cpu:       0.7
 (Enter /apps/gaussian/g09/l103.exe)

 GradGradGradGradGradGradGradGradGradGradGradGradGradGradGradGradGradGrad
 Berny optimization.
 Initialization pass.
                           ----------------------------
                           !    Initial Parameters    !
                           ! (Angstroms and Degrees)  !
 --------------------------                            --------------------------
 ! Name  Definition              Value          Derivative Info.                !
 --------------------------------------------------------------------------------
 ! R1    R(1,2)                  1.1502         calculate D2E/DX2 analytically  !
 ! R2    R(1,3)                  1.2608         calculate D2E/DX2 analytically  !
 ! R3    R(3,4)                  1.0182         calculate D2E/DX2 analytically  !
 ! R4    R(3,5)                  1.629          calculate D2E/DX2 analytically  !
 ! A1    A(2,1,3)              158.8387         calculate D2E/DX2 analytically  !
 ! A2    A(1,3,4)              111.3592         calculate D2E/DX2 analytically  !
 ! A3    A(1,3,5)              119.105          calculate D2E/DX2 analytically  !
 ! A4    A(4,3,5)              106.4102         calculate D2E/DX2 analytically  !
 ! D1    D(2,1,3,4)           -154.8094         calculate D2E/DX2 analytically  !
 ! D2    D(2,1,3,5)            -30.414          calculate D2E/DX2 analytically  !
 --------------------------------------------------------------------------------
 Trust Radius=3.00D-01 FncErr=1.00D-07 GrdErr=1.00D-06
 Number of steps in this run=  40 maximum allowed number of steps= 100.
 Search for a saddle point of order  1.
 GradGradGradGradGradGradGradGradGradGradGradGradGradGradGradGradGradGrad

 Leave Link  103 at Fri Apr 25 16:32:11 2014, MaxMem=   65536000 cpu:       0.0
 (Enter /apps/gaussian/g09/l202.exe)
                          Input orientation:                          
 ---------------------------------------------------------------------
 Center     Atomic      Atomic             Coordinates (Angstroms)
 Number     Number       Type             X           Y           Z
 ---------------------------------------------------------------------
      1          7           0        0.031122   -0.071751   -0.001123
      2          7           0       -0.004686    0.037648    1.143276
      3          7           0        0.466469    0.035715   -1.179508
      4          1           0       -0.291120    0.003874   -1.859095
      5          1           0        1.382373    1.324587   -1.571387
 ---------------------------------------------------------------------
                    Distance matrix (angstroms):
                    1          2          3          4          5
     1  N    0.000000
     2  N    1.150174   0.000000
     3  N    1.260820   2.370088   0.000000
     4  H    1.887225   3.016192   1.018231   0.000000
     5  H    2.498273   3.309009   1.629000   2.151194   0.000000
 Stoichiometry    H2N3(2)
 Framework group  C1[X(H2N3)]
 Deg. of freedom     9
 Full point group                 C1      NOp   1
 Largest Abelian subgroup         C1      NOp   1
 Largest concise Abelian subgroup C1      NOp   1
                         Standard orientation:                         
 ---------------------------------------------------------------------
 Center     Atomic      Atomic             Coordinates (Angstroms)
 Number     Number       Type             X           Y           Z
 ---------------------------------------------------------------------
      1          7           0        0.202128   -0.170408    0.009018
      2          7           0        1.313379    0.126167    0.017018
      3          7           0       -1.046382   -0.048859   -0.117929
      4          1           0       -1.544884   -0.738682    0.441028
      5          1           0       -1.738994    1.390387    0.202227
 ---------------------------------------------------------------------
 Rotational constants (GHZ):    143.8624495     11.0489986     10.4313301
 Leave Link  202 at Fri Apr 25 16:32:11 2014, MaxMem=   65536000 cpu:       0.0
 (Enter /apps/gaussian/g09/l301.exe)
 Standard basis: 6-311G(d,p) (5D, 7F)
 Ernie: Thresh=  0.10000D-02 Tol=  0.10000D-05 Strict=F.
 AO basis set in the form of general basis input (Overlap normalization):
      1 0
 S   6 1.00       0.000000000000
      0.6293480000D+04  0.1969788147D-02
      0.9490440000D+03  0.1496128592D-01
      0.2187760000D+03  0.7350053084D-01
      0.6369160000D+02  0.2489367658D+00
      0.1882820000D+02  0.6024594331D+00
      0.2720230000D+01  0.2562017589D+00
 SP   3 1.00       0.000000000000
      0.3063310000D+02  0.1119060795D+00  0.3831191864D-01
      0.7026140000D+01  0.9216666549D+00  0.2374031155D+00
      0.2112050000D+01 -0.2569191826D-02  0.8175923978D+00
 SP   1 1.00       0.000000000000
      0.6840090000D+00  0.1000000000D+01  0.1000000000D+01
 SP   1 1.00       0.000000000000
      0.2008780000D+00  0.1000000000D+01  0.1000000000D+01
 D   1 1.00       0.000000000000
      0.9130000000D+00  0.1000000000D+01
 ****
      2 0
 S   6 1.00       0.000000000000
      0.6293480000D+04  0.1969788147D-02
      0.9490440000D+03  0.1496128592D-01
      0.2187760000D+03  0.7350053084D-01
      0.6369160000D+02  0.2489367658D+00
      0.1882820000D+02  0.6024594331D+00
      0.2720230000D+01  0.2562017589D+00
 SP   3 1.00       0.000000000000
      0.3063310000D+02  0.1119060795D+00  0.3831191864D-01
      0.7026140000D+01  0.9216666549D+00  0.2374031155D+00
      0.2112050000D+01 -0.2569191826D-02  0.8175923978D+00
 SP   1 1.00       0.000000000000
      0.6840090000D+00  0.1000000000D+01  0.1000000000D+01
 SP   1 1.00       0.000000000000
      0.2008780000D+00  0.1000000000D+01  0.1000000000D+01
 D   1 1.00       0.000000000000
      0.9130000000D+00  0.1000000000D+01
 ****
      3 0
 S   6 1.00       0.000000000000
      0.6293480000D+04  0.1969788147D-02
      0.9490440000D+03  0.1496128592D-01
      0.2187760000D+03  0.7350053084D-01
      0.6369160000D+02  0.2489367658D+00
      0.1882820000D+02  0.6024594331D+00
      0.2720230000D+01  0.2562017589D+00
 SP   3 1.00       0.000000000000
      0.3063310000D+02  0.1119060795D+00  0.3831191864D-01
      0.7026140000D+01  0.9216666549D+00  0.2374031155D+00
      0.2112050000D+01 -0.2569191826D-02  0.8175923978D+00
 SP   1 1.00       0.000000000000
      0.6840090000D+00  0.1000000000D+01  0.1000000000D+01
 SP   1 1.00       0.000000000000
      0.2008780000D+00  0.1000000000D+01  0.1000000000D+01
 D   1 1.00       0.000000000000
      0.9130000000D+00  0.1000000000D+01
 ****
      4 0
 S   3 1.00       0.000000000000
      0.3386500000D+02  0.2549381454D-01
      0.5094790000D+01  0.1903731086D+00
      0.1158790000D+01  0.8521614860D+00
 S   1 1.00       0.000000000000
      0.3258400000D+00  0.1000000000D+01
 S   1 1.00       0.000000000000
      0.1027410000D+00  0.1000000000D+01
 P   1 1.00       0.000000000000
      0.7500000000D+00  0.1000000000D+01
 ****
      5 0
 S   3 1.00       0.000000000000
      0.3386500000D+02  0.2549381454D-01
      0.5094790000D+01  0.1903731086D+00
      0.1158790000D+01  0.8521614860D+00
 S   1 1.00       0.000000000000
      0.3258400000D+00  0.1000000000D+01
 S   1 1.00       0.000000000000
      0.1027410000D+00  0.1000000000D+01
 P   1 1.00       0.000000000000
      0.7500000000D+00  0.1000000000D+01
 ****

 There are    66 symmetry adapted basis functions of A   symmetry.
 Integral buffers will be    131072 words long.
 Raffenetti 2 integral format.
 Two-electron integral symmetry is turned on.
    66 basis functions,   112 primitive gaussians,    69 cartesian basis functions
    12 alpha electrons       11 beta electrons
       nuclear repulsion energy        66.0011885649 Hartrees.
 IExCor= 4235 DFT=T Ex+Corr=M06 ExCW=0 ScaHFX=  0.270000
 ScaDFX=  1.000000  1.000000  1.000000  1.000000 ScalE2=  1.000000  1.000000
 IRadAn=      0 IRanWt=     -1 IRanGd=            0 ICorTp=0
 NAtoms=    5 NActive=    5 NUniq=    5 SFac= 7.50D-01 NAtFMM=   80 NAOKFM=F Big=F
 Leave Link  301 at Fri Apr 25 16:32:11 2014, MaxMem=   65536000 cpu:       0.4
 (Enter /apps/gaussian/g09/l302.exe)
 NPDir=0 NMtPBC=     1 NCelOv=     1 NCel=       1 NClECP=     1 NCelD=      1
         NCelK=      1 NCelE2=     1 NClLst=     1 CellRange=     0.0.
 One-electron integrals computed using PRISM.
 NBasis=    66 RedAO= T  NBF=    66
 NBsUse=    66 1.00D-06 NBFU=    66
 Precomputing XC quadrature grid using
 IXCGrd= 2 IRadAn=           0 IRanWt=          -1 IRanGd=           0 AccXCQ= 1.00D-10.
 NRdTot=     311 NPtTot=       39452 NUsed=       41707 NTot=       41739
 NSgBfM=    69    69    69    69    69 NAtAll=     5     5.
 Leave Link  302 at Fri Apr 25 16:32:11 2014, MaxMem=   65536000 cpu:       2.4
 (Enter /apps/gaussian/g09/l303.exe)
 DipDrv:  MaxL=1.
 Leave Link  303 at Fri Apr 25 16:32:11 2014, MaxMem=   65536000 cpu:       0.1
 (Enter /apps/gaussian/g09/l401.exe)
 Harris functional with IExCor= 1009 diagonalized for initial guess.
 ExpMin= 1.03D-01 ExpMax= 6.29D+03 ExpMxC= 9.49D+02 IAcc=1 IRadAn=         1 AccDes= 0.00D+00
 HarFok:  IExCor= 1009 AccDes= 0.00D+00 IRadAn=         1 IDoV= 1
 ScaDFX=  1.000000  1.000000  1.000000  1.000000
 FoFCou: FMM=F IPFlag=           0 FMFlag=      100000 FMFlg1=           0
         NFxFlg=           0 DoJE=T BraDBF=F KetDBF=T FulRan=T
         Omega=  0.000000  0.000000  1.000000  0.000000  0.000000 ICntrl=     500 IOpCl=  0
         NMat0=    1 NMatS0=    1 NMatT0=    0 NMatD0=    1 NMtDS0=    0 NMtDT0=    0
         I1Cent=           4 NGrid=           0.
 Petite list used in FoFCou.
 Harris En= -165.172207284836    
 Initial guess orbital symmetries:
 Alpha Orbitals:
       Occupied  (A) (A) (A) (A) (A) (A) (A) (A) (A) (A) (A) (A)
       Virtual   (A) (A) (A) (A) (A) (A) (A) (A) (A) (A) (A) (A)
                 (A) (A) (A) (A) (A) (A) (A) (A) (A) (A) (A) (A)
                 (A) (A) (A) (A) (A) (A) (A) (A) (A) (A) (A) (A)
                 (A) (A) (A) (A) (A) (A) (A) (A) (A) (A) (A) (A)
                 (A) (A) (A) (A) (A) (A)
 Beta  Orbitals:
       Occupied  (A) (A) (A) (A) (A) (A) (A) (A) (A) (A) (A)
       Virtual   (A) (A) (A) (A) (A) (A) (A) (A) (A) (A) (A) (A)
                 (A) (A) (A) (A) (A) (A) (A) (A) (A) (A) (A) (A)
                 (A) (A) (A) (A) (A) (A) (A) (A) (A) (A) (A) (A)
                 (A) (A) (A) (A) (A) (A) (A) (A) (A) (A) (A) (A)
                 (A) (A) (A) (A) (A) (A) (A)
 The electronic state of the initial guess is 2-A.
 Initial guess <Sx>= 0.0000 <Sy>= 0.0000 <Sz>= 0.5000 <S**2>= 0.7500 S= 0.5000
 Leave Link  401 at Fri Apr 25 16:32:11 2014, MaxMem=   65536000 cpu:       1.6
 (Enter /apps/gaussian/g09/l502.exe)
 UHF open shell SCF:
 Requested convergence on RMS density matrix=1.00D-08 within 128 cycles.
 Requested convergence on MAX density matrix=1.00D-06.
 Requested convergence on             energy=1.00D-06.
 No special actions if energy rises.
 Using DIIS extrapolation, IDIIS=  1040.
 Integral symmetry usage will be decided dynamically.
        41649 words used for storage of precomputed grid.
 Keep R1 and R2 ints in memory in canonical form, NReq=6799222.
 IEnd=       75419 IEndB=       75419 NGot=    65536000 MDV=    59647384
 LenX=    59647384 LenY=    59642182
 Symmetry not used in FoFDir.
 MinBra= 0 MaxBra= 2 Meth= 1.
 IRaf=       0 NMat=   1 IRICut=       1 DoRegI=T DoRafI=F ISym2E= 0 JSym2E=0.
 Integral accuracy reduced to 1.0D-05 until final iterations.

 Cycle   1  Pass 0  IDiag  1:
 E= -165.182758506209    
 DIIS: error= 2.49D-02 at cycle   1 NSaved=   1.
 NSaved= 1 IEnMin= 1 EnMin= -165.182758506209     IErMin= 1 ErrMin= 2.49D-02
 ErrMax= 2.49D-02 EMaxC= 1.00D-01 BMatC= 1.84D-01 BMatP= 1.84D-01
 IDIUse=3 WtCom= 7.51D-01 WtEn= 2.49D-01
 Coeff-Com:  0.100D+01
 Coeff-En:   0.100D+01
 Coeff:      0.100D+01
 Gap=     0.174 Goal=   None    Shift=    0.000
 Gap=     0.186 Goal=   None    Shift=    0.000
 GapD=    0.174 DampG=1.000 DampE=0.500 DampFc=0.5000 IDamp=-1.
 Damping current iteration by 5.00D-01
 RMSDP=6.37D-03 MaxDP=1.68D-01              OVMax= 1.77D-01

 Cycle   2  Pass 0  IDiag  1:
 E= -165.190365602284     Delta-E=       -0.007607096075 Rises=F Damp=T
 DIIS: error= 1.38D-02 at cycle   2 NSaved=   2.
 NSaved= 2 IEnMin= 2 EnMin= -165.190365602284     IErMin= 2 ErrMin= 1.38D-02
 ErrMax= 1.38D-02 EMaxC= 1.00D-01 BMatC= 4.55D-02 BMatP= 1.84D-01
 IDIUse=3 WtCom= 8.62D-01 WtEn= 1.38D-01
 Coeff-Com:  0.276D+00 0.724D+00
 Coeff-En:   0.403D+00 0.597D+00
 Coeff:      0.293D+00 0.707D+00
 Gap=     0.160 Goal=   None    Shift=    0.000
 Gap=     0.214 Goal=   None    Shift=    0.000
 RMSDP=1.77D-03 MaxDP=1.94D-02 DE=-7.61D-03 OVMax= 1.14D-01

 Cycle   3  Pass 0  IDiag  1:
 E= -165.214220132504     Delta-E=       -0.023854530221 Rises=F Damp=F
 DIIS: error= 1.84D-02 at cycle   3 NSaved=   3.
 NSaved= 3 IEnMin= 3 EnMin= -165.214220132504     IErMin= 2 ErrMin= 1.38D-02
 ErrMax= 1.84D-02 EMaxC= 1.00D-01 BMatC= 4.06D-02 BMatP= 4.55D-02
 IDIUse=3 WtCom= 8.16D-01 WtEn= 1.84D-01
 Coeff-Com:  0.119D+00 0.462D+00 0.418D+00
 Coeff-En:   0.000D+00 0.000D+00 0.100D+01
 Coeff:      0.973D-01 0.378D+00 0.525D+00
 Gap=     0.157 Goal=   None    Shift=    0.000
 Gap=     0.234 Goal=   None    Shift=    0.000
 RMSDP=1.72D-03 MaxDP=2.37D-02 DE=-2.39D-02 OVMax= 6.39D-02

 Cycle   4  Pass 0  IDiag  1:
 E= -165.217003050173     Delta-E=       -0.002782917669 Rises=F Damp=F
 DIIS: error= 1.64D-02 at cycle   4 NSaved=   4.
 NSaved= 4 IEnMin= 4 EnMin= -165.217003050173     IErMin= 2 ErrMin= 1.38D-02
 ErrMax= 1.64D-02 EMaxC= 1.00D-01 BMatC= 2.88D-02 BMatP= 4.06D-02
 IDIUse=3 WtCom= 8.36D-01 WtEn= 1.64D-01
 Coeff-Com:  0.276D-01 0.802D-01 0.433D+00 0.459D+00
 Coeff-En:   0.000D+00 0.000D+00 0.434D+00 0.566D+00
 Coeff:      0.231D-01 0.670D-01 0.433D+00 0.477D+00
 Gap=     0.158 Goal=   None    Shift=    0.000
 Gap=     0.231 Goal=   None    Shift=    0.000
 RMSDP=9.40D-04 MaxDP=1.17D-02 DE=-2.78D-03 OVMax= 3.52D-02

 Cycle   5  Pass 0  IDiag  1:
 E= -165.223231029512     Delta-E=       -0.006227979339 Rises=F Damp=F
 DIIS: error= 1.73D-03 at cycle   5 NSaved=   5.
 NSaved= 5 IEnMin= 5 EnMin= -165.223231029512     IErMin= 5 ErrMin= 1.73D-03
 ErrMax= 1.73D-03 EMaxC= 1.00D-01 BMatC= 7.22D-04 BMatP= 2.88D-02
 IDIUse=3 WtCom= 9.83D-01 WtEn= 1.73D-02
 Coeff-Com: -0.830D-03-0.103D-01 0.172D+00 0.244D+00 0.595D+00
 Coeff-En:   0.000D+00 0.000D+00 0.000D+00 0.000D+00 0.100D+01
 Coeff:     -0.816D-03-0.101D-01 0.169D+00 0.240D+00 0.602D+00
 Gap=     0.162 Goal=   None    Shift=    0.000
 Gap=     0.231 Goal=   None    Shift=    0.000
 RMSDP=3.40D-04 MaxDP=6.08D-03 DE=-6.23D-03 OVMax= 2.03D-02

 Cycle   6  Pass 0  IDiag  1:
 E= -165.223481443553     Delta-E=       -0.000250414041 Rises=F Damp=F
 DIIS: error= 1.03D-03 at cycle   6 NSaved=   6.
 NSaved= 6 IEnMin= 6 EnMin= -165.223481443553     IErMin= 6 ErrMin= 1.03D-03
 ErrMax= 1.03D-03 EMaxC= 1.00D-01 BMatC= 1.60D-04 BMatP= 7.22D-04
 IDIUse=3 WtCom= 9.90D-01 WtEn= 1.03D-02
 Coeff-Com: -0.119D-01-0.107D-01-0.810D-01-0.103D+00 0.226D+00 0.980D+00
 Coeff-En:   0.000D+00 0.000D+00 0.000D+00 0.000D+00 0.000D+00 0.100D+01
 Coeff:     -0.118D-01-0.106D-01-0.802D-01-0.102D+00 0.224D+00 0.981D+00
 Gap=     0.162 Goal=   None    Shift=    0.000
 Gap=     0.233 Goal=   None    Shift=    0.000
 RMSDP=1.69D-04 MaxDP=3.15D-03 DE=-2.50D-04 OVMax= 7.32D-03

 Cycle   7  Pass 0  IDiag  1:
 E= -165.223575700309     Delta-E=       -0.000094256756 Rises=F Damp=F
 DIIS: error= 2.42D-04 at cycle   7 NSaved=   7.
 NSaved= 7 IEnMin= 7 EnMin= -165.223575700309     IErMin= 7 ErrMin= 2.42D-04
 ErrMax= 2.42D-04 EMaxC= 1.00D-01 BMatC= 9.28D-06 BMatP= 1.60D-04
 IDIUse=3 WtCom= 9.98D-01 WtEn= 2.42D-03
 Coeff-Com: -0.139D-02 0.278D-02-0.353D-01-0.482D-01-0.110D+00 0.939D-01
 Coeff-Com:  0.110D+01
 Coeff-En:   0.000D+00 0.000D+00 0.000D+00 0.000D+00 0.000D+00 0.000D+00
 Coeff-En:   0.100D+01
 Coeff:     -0.138D-02 0.278D-02-0.352D-01-0.481D-01-0.110D+00 0.937D-01
 Coeff:      0.110D+01
 Gap=     0.163 Goal=   None    Shift=    0.000
 Gap=     0.234 Goal=   None    Shift=    0.000
 RMSDP=8.92D-05 MaxDP=1.70D-03 DE=-9.43D-05 OVMax= 4.66D-03

 Cycle   8  Pass 0  IDiag  1:
 E= -165.223587530494     Delta-E=       -0.000011830185 Rises=F Damp=F
 DIIS: error= 1.17D-04 at cycle   8 NSaved=   8.
 NSaved= 8 IEnMin= 8 EnMin= -165.223587530494     IErMin= 8 ErrMin= 1.17D-04
 ErrMax= 1.17D-04 EMaxC= 1.00D-01 BMatC= 6.61D-07 BMatP= 9.28D-06
 IDIUse=3 WtCom= 9.99D-01 WtEn= 1.17D-03
 Coeff-Com:  0.889D-03 0.281D-03 0.445D-02 0.375D-02-0.162D-01-0.646D-01
 Coeff-Com:  0.314D-01 0.104D+01
 Coeff-En:   0.000D+00 0.000D+00 0.000D+00 0.000D+00 0.000D+00 0.000D+00
 Coeff-En:   0.000D+00 0.100D+01
 Coeff:      0.888D-03 0.281D-03 0.444D-02 0.375D-02-0.162D-01-0.645D-01
 Coeff:      0.314D-01 0.104D+01
 Gap=     0.163 Goal=   None    Shift=    0.000
 Gap=     0.234 Goal=   None    Shift=    0.000
 RMSDP=1.77D-05 MaxDP=2.14D-04 DE=-1.18D-05 OVMax= 7.97D-04

 Cycle   9  Pass 0  IDiag  1:
 E= -165.223588260845     Delta-E=       -0.000000730351 Rises=F Damp=F
 DIIS: error= 3.66D-05 at cycle   9 NSaved=   9.
 NSaved= 9 IEnMin= 9 EnMin= -165.223588260845     IErMin= 9 ErrMin= 3.66D-05
 ErrMax= 3.66D-05 EMaxC= 1.00D-01 BMatC= 8.29D-08 BMatP= 6.61D-07
 IDIUse=1 WtCom= 1.00D+00 WtEn= 0.00D+00
 Coeff-Com:  0.911D-04-0.113D-03 0.368D-02 0.494D-02 0.123D-01-0.117D-01
 Coeff-Com: -0.113D+00-0.860D-02 0.111D+01
 Coeff:      0.911D-04-0.113D-03 0.368D-02 0.494D-02 0.123D-01-0.117D-01
 Coeff:     -0.113D+00-0.860D-02 0.111D+01
 Gap=     0.163 Goal=   None    Shift=    0.000
 Gap=     0.234 Goal=   None    Shift=    0.000
 RMSDP=7.14D-06 MaxDP=1.08D-04 DE=-7.30D-07 OVMax= 3.75D-04

 Initial convergence to 1.0D-05 achieved.  Increase integral accuracy.
 Cycle  10  Pass 1  IDiag  1:
 E= -165.223551386765     Delta-E=        0.000036874080 Rises=F Damp=F
 DIIS: error= 2.68D-04 at cycle   1 NSaved=   1.
 NSaved= 1 IEnMin= 1 EnMin= -165.223551386765     IErMin= 1 ErrMin= 2.68D-04
 ErrMax= 2.68D-04 EMaxC= 1.00D-01 BMatC= 2.69D-05 BMatP= 2.69D-05
 IDIUse=3 WtCom= 9.97D-01 WtEn= 2.68D-03
 Coeff-Com:  0.100D+01
 Coeff-En:   0.100D+01
 Coeff:      0.100D+01
 Gap=     0.163 Goal=   None    Shift=    0.000
 Gap=     0.234 Goal=   None    Shift=    0.000
 RMSDP=7.14D-06 MaxDP=1.08D-04 DE= 3.69D-05 OVMax= 7.57D-04

 Cycle  11  Pass 1  IDiag  1:
 E= -165.223556691234     Delta-E=       -0.000005304469 Rises=F Damp=F
 DIIS: error= 2.76D-05 at cycle   2 NSaved=   2.
 NSaved= 2 IEnMin= 2 EnMin= -165.223556691234     IErMin= 2 ErrMin= 2.76D-05
 ErrMax= 2.76D-05 EMaxC= 1.00D-01 BMatC= 1.90D-07 BMatP= 2.69D-05
 IDIUse=1 WtCom= 1.00D+00 WtEn= 0.00D+00
 Coeff-Com:  0.140D-01 0.986D+00
 Coeff:      0.140D-01 0.986D+00
 Gap=     0.163 Goal=   None    Shift=    0.000
 Gap=     0.234 Goal=   None    Shift=    0.000
 RMSDP=7.74D-06 MaxDP=1.25D-04 DE=-5.30D-06 OVMax= 2.27D-04

 Cycle  12  Pass 1  IDiag  1:
 E= -165.223556673848     Delta-E=        0.000000017386 Rises=F Damp=F
 DIIS: error= 4.70D-05 at cycle   3 NSaved=   3.
 NSaved= 3 IEnMin= 2 EnMin= -165.223556691234     IErMin= 2 ErrMin= 2.76D-05
 ErrMax= 4.70D-05 EMaxC= 1.00D-01 BMatC= 2.95D-07 BMatP= 1.90D-07
 IDIUse=1 WtCom= 1.00D+00 WtEn= 0.00D+00
 Coeff-Com:  0.262D-02 0.566D+00 0.431D+00
 Coeff:      0.262D-02 0.566D+00 0.431D+00
 Gap=     0.163 Goal=   None    Shift=    0.000
 Gap=     0.234 Goal=   None    Shift=    0.000
 RMSDP=5.22D-06 MaxDP=6.94D-05 DE= 1.74D-08 OVMax= 2.71D-04

 Cycle  13  Pass 1  IDiag  1:
 E= -165.223556732466     Delta-E=       -0.000000058618 Rises=F Damp=F
 DIIS: error= 2.95D-05 at cycle   4 NSaved=   4.
 NSaved= 4 IEnMin= 4 EnMin= -165.223556732466     IErMin= 2 ErrMin= 2.76D-05
 ErrMax= 2.95D-05 EMaxC= 1.00D-01 BMatC= 7.97D-08 BMatP= 1.90D-07
 IDIUse=1 WtCom= 1.00D+00 WtEn= 0.00D+00
 Coeff-Com: -0.161D-02 0.195D+00 0.324D+00 0.483D+00
 Coeff:     -0.161D-02 0.195D+00 0.324D+00 0.483D+00
 Gap=     0.163 Goal=   None    Shift=    0.000
 Gap=     0.234 Goal=   None    Shift=    0.000
 RMSDP=1.66D-06 MaxDP=1.94D-05 DE=-5.86D-08 OVMax= 7.53D-05

 Cycle  14  Pass 1  IDiag  1:
 E= -165.223556747140     Delta-E=       -0.000000014674 Rises=F Damp=F
 DIIS: error= 9.65D-06 at cycle   5 NSaved=   5.
 NSaved= 5 IEnMin= 5 EnMin= -165.223556747140     IErMin= 5 ErrMin= 9.65D-06
 ErrMax= 9.65D-06 EMaxC= 1.00D-01 BMatC= 1.91D-08 BMatP= 7.97D-08
 IDIUse=1 WtCom= 1.00D+00 WtEn= 0.00D+00
 Coeff-Com: -0.183D-02 0.130D-01 0.165D+00 0.355D+00 0.469D+00
 Coeff:     -0.183D-02 0.130D-01 0.165D+00 0.355D+00 0.469D+00
 Gap=     0.163 Goal=   None    Shift=    0.000
 Gap=     0.234 Goal=   None    Shift=    0.000
 RMSDP=7.70D-07 MaxDP=1.22D-05 DE=-1.47D-08 OVMax= 2.55D-05

 Cycle  15  Pass 1  IDiag  1:
 E= -165.223556750887     Delta-E=       -0.000000003747 Rises=F Damp=F
 DIIS: error= 4.41D-06 at cycle   6 NSaved=   6.
 NSaved= 6 IEnMin= 6 EnMin= -165.223556750887     IErMin= 6 ErrMin= 4.41D-06
 ErrMax= 4.41D-06 EMaxC= 1.00D-01 BMatC= 1.67D-09 BMatP= 1.91D-08
 IDIUse=1 WtCom= 1.00D+00 WtEn= 0.00D+00
 Coeff-Com: -0.788D-03-0.178D-01 0.480D-01 0.943D-01 0.249D+00 0.627D+00
 Coeff:     -0.788D-03-0.178D-01 0.480D-01 0.943D-01 0.249D+00 0.627D+00
 Gap=     0.163 Goal=   None    Shift=    0.000
 Gap=     0.234 Goal=   None    Shift=    0.000
 RMSDP=3.10D-07 MaxDP=5.28D-06 DE=-3.75D-09 OVMax= 1.56D-05

 Cycle  16  Pass 1  IDiag  1:
 E= -165.223556751465     Delta-E=       -0.000000000578 Rises=F Damp=F
 DIIS: error= 1.29D-06 at cycle   7 NSaved=   7.
 NSaved= 7 IEnMin= 7 EnMin= -165.223556751465     IErMin= 7 ErrMin= 1.29D-06
 ErrMax= 1.29D-06 EMaxC= 1.00D-01 BMatC= 2.54D-10 BMatP= 1.67D-09
 IDIUse=1 WtCom= 1.00D+00 WtEn= 0.00D+00
 Coeff-Com:  0.240D-03-0.118D-01-0.213D-01-0.636D-01-0.507D-01 0.204D+00
 Coeff-Com:  0.943D+00
 Coeff:      0.240D-03-0.118D-01-0.213D-01-0.636D-01-0.507D-01 0.204D+00
 Coeff:      0.943D+00
 Gap=     0.163 Goal=   None    Shift=    0.000
 Gap=     0.234 Goal=   None    Shift=    0.000
 RMSDP=2.75D-07 MaxDP=3.16D-06 DE=-5.78D-10 OVMax= 1.26D-05

 Cycle  17  Pass 1  IDiag  1:
 E= -165.223556751669     Delta-E=       -0.000000000204 Rises=F Damp=F
 DIIS: error= 5.76D-07 at cycle   8 NSaved=   8.
 NSaved= 8 IEnMin= 8 EnMin= -165.223556751669     IErMin= 8 ErrMin= 5.76D-07
 ErrMax= 5.76D-07 EMaxC= 1.00D-01 BMatC= 4.33D-11 BMatP= 2.54D-10
 IDIUse=1 WtCom= 1.00D+00 WtEn= 0.00D+00
 Coeff-Com:  0.308D-03 0.322D-02-0.154D-01-0.416D-01-0.973D-01-0.149D+00
 Coeff-Com:  0.196D+00 0.110D+01
 Coeff:      0.308D-03 0.322D-02-0.154D-01-0.416D-01-0.973D-01-0.149D+00
 Coeff:      0.196D+00 0.110D+01
 Gap=     0.163 Goal=   None    Shift=    0.000
 Gap=     0.234 Goal=   None    Shift=    0.000
 RMSDP=1.65D-07 MaxDP=2.66D-06 DE=-2.04D-10 OVMax= 8.76D-06

 Cycle  18  Pass 1  IDiag  1:
 E= -165.223556751724     Delta-E=       -0.000000000055 Rises=F Damp=F
 DIIS: error= 1.43D-07 at cycle   9 NSaved=   9.
 NSaved= 9 IEnMin= 9 EnMin= -165.223556751724     IErMin= 9 ErrMin= 1.43D-07
 ErrMax= 1.43D-07 EMaxC= 1.00D-01 BMatC= 3.11D-12 BMatP= 4.33D-11
 IDIUse=1 WtCom= 1.00D+00 WtEn= 0.00D+00
 Coeff-Com:  0.285D-04 0.154D-02-0.146D-02-0.712D-03-0.888D-02-0.422D-01
 Coeff-Com: -0.627D-01 0.180D+00 0.935D+00
 Coeff:      0.285D-04 0.154D-02-0.146D-02-0.712D-03-0.888D-02-0.422D-01
 Coeff:     -0.627D-01 0.180D+00 0.935D+00
 Gap=     0.163 Goal=   None    Shift=    0.000
 Gap=     0.234 Goal=   None    Shift=    0.000
 RMSDP=3.25D-08 MaxDP=5.04D-07 DE=-5.50D-11 OVMax= 1.52D-06

 Cycle  19  Pass 1  IDiag  1:
 E= -165.223556751728     Delta-E=       -0.000000000004 Rises=F Damp=F
 DIIS: error= 6.44D-08 at cycle  10 NSaved=  10.
 NSaved=10 IEnMin=10 EnMin= -165.223556751728     IErMin=10 ErrMin= 6.44D-08
 ErrMax= 6.44D-08 EMaxC= 1.00D-01 BMatC= 5.70D-13 BMatP= 3.11D-12
 IDIUse=1 WtCom= 1.00D+00 WtEn= 0.00D+00
 Coeff-Com: -0.351D-04-0.362D-03 0.131D-02 0.514D-02 0.127D-01 0.138D-01
 Coeff-Com: -0.208D-01-0.120D+00-0.107D+00 0.122D+01
 Coeff:     -0.351D-04-0.362D-03 0.131D-02 0.514D-02 0.127D-01 0.138D-01
 Coeff:     -0.208D-01-0.120D+00-0.107D+00 0.122D+01
 Gap=     0.163 Goal=   None    Shift=    0.000
 Gap=     0.234 Goal=   None    Shift=    0.000
 RMSDP=1.72D-08 MaxDP=1.87D-07 DE=-3.84D-12 OVMax= 7.50D-07

 Cycle  20  Pass 1  IDiag  1:
 E= -165.223556751729     Delta-E=       -0.000000000001 Rises=F Damp=F
 DIIS: error= 3.70D-08 at cycle  11 NSaved=  11.
 NSaved=11 IEnMin=11 EnMin= -165.223556751729     IErMin=11 ErrMin= 3.70D-08
 ErrMax= 3.70D-08 EMaxC= 1.00D-01 BMatC= 1.60D-13 BMatP= 5.70D-13
 IDIUse=1 WtCom= 1.00D+00 WtEn= 0.00D+00
 Coeff-Com: -0.237D-05-0.191D-03-0.175D-03 0.178D-03 0.427D-03 0.461D-02
 Coeff-Com:  0.203D-01-0.225D-01-0.215D+00-0.755D-01 0.129D+01
 Coeff:     -0.237D-05-0.191D-03-0.175D-03 0.178D-03 0.427D-03 0.461D-02
 Coeff:      0.203D-01-0.225D-01-0.215D+00-0.755D-01 0.129D+01
 Gap=     0.163 Goal=   None    Shift=    0.000
 Gap=     0.234 Goal=   None    Shift=    0.000
 RMSDP=1.09D-08 MaxDP=1.68D-07 DE=-9.09D-13 OVMax= 5.07D-07

 Cycle  21  Pass 1  IDiag  1:
 E= -165.223556751729     Delta-E=        0.000000000000 Rises=F Damp=F
 DIIS: error= 9.37D-09 at cycle  12 NSaved=  12.
 NSaved=12 IEnMin=11 EnMin= -165.223556751729     IErMin=12 ErrMin= 9.37D-09
 ErrMax= 9.37D-09 EMaxC= 1.00D-01 BMatC= 9.34D-15 BMatP= 1.60D-13
 IDIUse=1 WtCom= 1.00D+00 WtEn= 0.00D+00
 Coeff-Com:  0.285D-05 0.525D-04-0.222D-03-0.525D-03-0.145D-02-0.217D-02
 Coeff-Com:  0.865D-03 0.131D-01 0.332D-01-0.936D-01-0.182D+00 0.123D+01
 Coeff:      0.285D-05 0.525D-04-0.222D-03-0.525D-03-0.145D-02-0.217D-02
 Coeff:      0.865D-03 0.131D-01 0.332D-01-0.936D-01-0.182D+00 0.123D+01
 Gap=     0.163 Goal=   None    Shift=    0.000
 Gap=     0.234 Goal=   None    Shift=    0.000
 RMSDP=3.32D-09 MaxDP=5.11D-08 DE= 1.71D-13 OVMax= 1.60D-07

 SCF Done:  E(UM06) =  -165.223556752     A.U. after   21 cycles
             Convg  =    0.3320D-08             -V/T =  2.0027
 <Sx>= 0.0000 <Sy>= 0.0000 <Sz>= 0.5000 <S**2>= 0.7709 S= 0.5104
 <L.S>=  0.00000000000    
 KE= 1.647783449225D+02 PE=-5.184769477652D+02 EE= 1.224738575261D+02
 Annihilation of the first spin contaminant:
 S**2 before annihilation     0.7709,   after     0.7501
 Leave Link  502 at Fri Apr 25 16:32:13 2014, MaxMem=   65536000 cpu:      18.2
 (Enter /apps/gaussian/g09/l801.exe)
 Range of M.O.s used for correlation:     1    66
 NBasis=    66 NAE=    12 NBE=    11 NFC=     0 NFV=     0
 NROrb=     66 NOA=    12 NOB=    11 NVA=    54 NVB=    55
 Leave Link  801 at Fri Apr 25 16:32:13 2014, MaxMem=   65536000 cpu:       0.2
 (Enter /apps/gaussian/g09/l1101.exe)
 Using compressed storage, NAtomX=     5.
 Will process   6 centers per pass.
 Leave Link 1101 at Fri Apr 25 16:32:13 2014, MaxMem=   65536000 cpu:       1.4
 (Enter /apps/gaussian/g09/l1102.exe)
 Symmetrizing basis deriv contribution to polar:
 IMax=3 JMax=2 DiffMx= 0.00D+00
 Leave Link 1102 at Fri Apr 25 16:32:13 2014, MaxMem=   65536000 cpu:       0.2
 (Enter /apps/gaussian/g09/l1110.exe)
 Forming Gx(P) for the SCF density, NAtomX=     5.
 Integral derivatives from FoFDir/FoFCou, PRISM(SPDF).
 Do as many integral derivatives as possible in FoFDir.
 G2DrvN: MDV=      65535856.
 G2DrvN: will do     6 centers at a time, making    1 passes doing MaxLOS=2.
 Calling FoFCou, ICntrl=  3107 FMM=F I1Cent=   0 AccDes= 0.00D+00.
 FoFCou: FMM=F IPFlag=           0 FMFlag=      100000 FMFlg1=           0
         NFxFlg=           0 DoJE=F BraDBF=F KetDBF=F FulRan=T
         Omega=  0.000000  0.000000  1.000000  0.000000  0.000000 ICntrl=    3107 IOpCl=  1
         NMat0=    1 NMatS0=    1 NMatT0=    0 NMatD0=    1 NMtDS0=    0 NMtDT0=    0
         I1Cent=           0 NGrid=           0.
 Symmetry not used in FoFCou.
 FoFDir/FoFCou used for L=0 through L=2.
 End of G2Drv Frequency-dependent properties file   721 does not exist.
 End of G2Drv Frequency-dependent properties file   722 does not exist.
 Leave Link 1110 at Fri Apr 25 16:32:15 2014, MaxMem=   65536000 cpu:      16.8
 (Enter /apps/gaussian/g09/l1002.exe)
 Minotr:  UHF open shell wavefunction.
          IDoAtm=11111
          Direct CPHF calculation.
          Differentiating once with respect to nuclear coordinates.
          Requested convergence is 1.0D-06 RMS, and 1.0D-05 maximum.
          Secondary convergence is 1.0D-12 RMS, and 1.0D-12 maximum.
          NewPWx=T KeepS1=F KeepF1=F KeepIn=T MapXYZ=F SortEE=F KeepMc=T.
          MDV=      65535946 using IRadAn=       2.
 Generate precomputed XC quadrature information.
          Keep R1 and R2 ints in memory in canonical form, NReq=6656460.
 Symmetry not used in FoFDir.
 MinBra= 0 MaxBra= 2 Meth= 1.
 IRaf=       0 NMat=   1 IRICut=       1 DoRegI=T DoRafI=F ISym2E= 0 JSym2E=0.
          Solving linear equations simultaneously, MaxMat=       0.
          There are    18 degrees of freedom in the 1st order CPHF.  IDoFFX=5.
     12 vectors produced by pass  0 Test12= 6.96D-11 5.56D-07 XBig12= 6.14D-01 2.37D-01.
 AX will form    12 AO Fock derivatives at one time.
     12 vectors produced by pass  1 Test12= 6.96D-11 5.56D-07 XBig12= 5.59D-01 2.87D-01.
     12 vectors produced by pass  2 Test12= 6.96D-11 5.56D-07 XBig12= 3.30D-02 4.63D-02.
     12 vectors produced by pass  3 Test12= 6.96D-11 5.56D-07 XBig12= 6.10D-04 6.28D-03.
     12 vectors produced by pass  4 Test12= 6.96D-11 5.56D-07 XBig12= 1.05D-05 7.58D-04.
      9 vectors produced by pass  5 Test12= 6.96D-11 5.56D-07 XBig12= 1.26D-07 6.85D-05.
      4 vectors produced by pass  6 Test12= 6.96D-11 5.56D-07 XBig12= 1.02D-09 7.46D-06.
 Inverted reduced A of dimension    73 with in-core refinement.
 End of Minotr Frequency-dependent properties file   721 does not exist.
 End of Minotr Frequency-dependent properties file   722 does not exist.
 Leave Link 1002 at Fri Apr 25 16:32:16 2014, MaxMem=   65536000 cpu:      19.9
 (Enter /apps/gaussian/g09/l601.exe)
 Copying SCF densities to generalized density rwf, IOpCl= 1 IROHF=0.

 **********************************************************************

            Population analysis using the SCF density.

 **********************************************************************

 Orbital symmetries:
 Alpha Orbitals:
       Occupied  (A) (A) (A) (A) (A) (A) (A) (A) (A) (A) (A) (A)
       Virtual   (A) (A) (A) (A) (A) (A) (A) (A) (A) (A) (A) (A)
                 (A) (A) (A) (A) (A) (A) (A) (A) (A) (A) (A) (A)
                 (A) (A) (A) (A) (A) (A) (A) (A) (A) (A) (A) (A)
                 (A) (A) (A) (A) (A) (A) (A) (A) (A) (A) (A) (A)
                 (A) (A) (A) (A) (A) (A)
 Beta  Orbitals:
       Occupied  (A) (A) (A) (A) (A) (A) (A) (A) (A) (A) (A)
       Virtual   (A) (A) (A) (A) (A) (A) (A) (A) (A) (A) (A) (A)
                 (A) (A) (A) (A) (A) (A) (A) (A) (A) (A) (A) (A)
                 (A) (A) (A) (A) (A) (A) (A) (A) (A) (A) (A) (A)
                 (A) (A) (A) (A) (A) (A) (A) (A) (A) (A) (A) (A)
                 (A) (A) (A) (A) (A) (A) (A)
 The electronic state is 2-A.
 Alpha  occ. eigenvalues --  -14.55476 -14.46784 -14.46729  -1.15895  -0.99287
 Alpha  occ. eigenvalues --   -0.65377  -0.55591  -0.52988  -0.47762  -0.40078
 Alpha  occ. eigenvalues --   -0.32061  -0.20794
 Alpha virt. eigenvalues --   -0.04487   0.00114   0.03790   0.22054   0.25707
 Alpha virt. eigenvalues --    0.35774   0.42850   0.46510   0.50628   0.53885
 Alpha virt. eigenvalues --    0.60201   0.64121   0.67830   0.68314   0.74062
 Alpha virt. eigenvalues --    0.77974   0.82286   0.98889   1.12219   1.22094
 Alpha virt. eigenvalues --    1.37017   1.39797   1.43453   1.54141   1.66889
 Alpha virt. eigenvalues --    1.68259   1.71810   1.83745   1.88986   2.05244
 Alpha virt. eigenvalues --    2.09412   2.17832   2.20197   2.37049   2.37921
 Alpha virt. eigenvalues --    2.49873   2.50513   2.64251   2.85967   3.00524
 Alpha virt. eigenvalues --    3.11984   3.40936   3.51800   3.62979   3.84438
 Alpha virt. eigenvalues --    3.89062   3.89846   4.05614   4.25089   4.33885
 Alpha virt. eigenvalues --    5.08633  34.97717  35.43883  36.02749
  Beta  occ. eigenvalues --  -14.55397 -14.46615 -14.46212  -1.14963  -0.98394
  Beta  occ. eigenvalues --   -0.65182  -0.53926  -0.52531  -0.46132  -0.37577
  Beta  occ. eigenvalues --   -0.31236
  Beta virt. eigenvalues --   -0.07803  -0.02264   0.02199   0.04434   0.22538
  Beta virt. eigenvalues --    0.34298   0.36072   0.42883   0.46535   0.50634
  Beta virt. eigenvalues --    0.54793   0.60422   0.64699   0.68290   0.68548
  Beta virt. eigenvalues --    0.74016   0.78319   0.82777   0.99443   1.12273
  Beta virt. eigenvalues --    1.22763   1.39539   1.42299   1.46682   1.55880
  Beta virt. eigenvalues --    1.67718   1.69094   1.72545   1.84627   1.91266
  Beta virt. eigenvalues --    2.06712   2.11044   2.19770   2.23282   2.38095
  Beta virt. eigenvalues --    2.39220   2.50555   2.57905   2.65590   2.86220
  Beta virt. eigenvalues --    3.01664   3.13003   3.40850   3.52290   3.64567
  Beta virt. eigenvalues --    3.84674   3.90153   3.91452   4.05221   4.24567
  Beta virt. eigenvalues --    4.34600   5.08761  34.98223  35.44101  36.03259
     Alpha Molecular Orbital Coefficients:
                           1         2         3         4         5
                           O         O         O         O         O
     Eigenvalues --   -14.55476 -14.46784 -14.46729  -1.15895  -0.99287
   1 1   N  1S          0.55750  -0.00311  -0.00139  -0.10354  -0.00370
   2        2S          0.46476  -0.00203  -0.00092  -0.16064  -0.00635
   3        2PX        -0.00033   0.00106  -0.00069   0.02815  -0.17008
   4        2PY         0.00041   0.00021   0.00004   0.02354  -0.01725
   5        2PZ        -0.00014   0.00002  -0.00006  -0.00309  -0.00612
   6        3S          0.01762  -0.00239  -0.00083   0.45648   0.02288
   7        3PX         0.00219  -0.00530   0.00234   0.02724  -0.23142
   8        3PY         0.00117  -0.00115  -0.00014   0.02998  -0.02198
   9        3PZ        -0.00010  -0.00009   0.00020  -0.00463  -0.00861
  10        4S         -0.00514   0.00308   0.00253   0.21418   0.02115
  11        4PX         0.00059   0.00663  -0.00571  -0.00612  -0.06222
  12        4PY        -0.00063   0.00086   0.00024   0.00991  -0.00941
  13        4PZ         0.00010   0.00026  -0.00023  -0.00128  -0.00122
  14        5D 0       -0.00198   0.00124   0.00062  -0.01210  -0.00157
  15        5D+1        0.00028   0.00001  -0.00028   0.00168   0.00123
  16        5D-1        0.00001  -0.00002   0.00004  -0.00063  -0.00024
  17        5D+2        0.00321  -0.00184  -0.00115   0.01788   0.00360
  18        5D-2        0.00086  -0.00121   0.00029   0.00444  -0.00568
  19 2   N  1S          0.00297   0.55706   0.01928  -0.06678   0.06604
  20        2S          0.00315   0.46494   0.01613  -0.10319   0.10311
  21        2PX        -0.00078  -0.00167  -0.00015  -0.07825   0.06495
  22        2PY        -0.00025  -0.00046   0.00003  -0.01965   0.02162
  23        2PZ         0.00000  -0.00002  -0.00003  -0.00094  -0.00013
  24        3S         -0.00263   0.01658   0.00043   0.29042  -0.29342
  25        3PX         0.00472  -0.00366   0.00018  -0.10665   0.08614
  26        3PY         0.00144  -0.00094  -0.00020  -0.02584   0.03033
  27        3PZ        -0.00001  -0.00003   0.00009  -0.00140  -0.00049
  28        4S         -0.00021  -0.01076   0.00302   0.11509  -0.14891
  29        4PX        -0.00062   0.00352  -0.00093  -0.02073   0.02580
  30        4PY         0.00007   0.00121  -0.00064  -0.00770   0.00795
  31        4PZ        -0.00004  -0.00004  -0.00003   0.00008  -0.00032
  32        5D 0        0.00141  -0.00114   0.00001  -0.00901   0.00785
  33        5D+1        0.00002   0.00005  -0.00005   0.00042   0.00022
  34        5D-1        0.00001   0.00001  -0.00003  -0.00019   0.00029
  35        5D+2       -0.00198   0.00172  -0.00019   0.01248  -0.00891
  36        5D-2       -0.00140   0.00092   0.00020   0.00675  -0.00831
  37 3   N  1S          0.00122  -0.01929   0.55732  -0.04771  -0.08606
  38        2S          0.00130  -0.01605   0.46479  -0.07371  -0.13395
  39        2PX         0.00082   0.00011   0.00108   0.04624   0.05166
  40        2PY        -0.00003   0.00010  -0.00063  -0.00786  -0.02246
  41        2PZ         0.00001  -0.00005   0.00088   0.01037   0.02294
  42        3S         -0.00078  -0.00068   0.01646   0.20632   0.37796
  43        3PX        -0.00309  -0.00045   0.00036   0.06978   0.08239
  44        3PY        -0.00003  -0.00022  -0.00098  -0.00882  -0.03209
  45        3PZ         0.00004   0.00004   0.00096   0.01453   0.03392
  46        4S          0.00125   0.00341  -0.01089   0.08311   0.22430
  47        4PX         0.00132   0.00163  -0.00269   0.00179   0.02191
  48        4PY         0.00021  -0.00022   0.00007  -0.00688  -0.00851
  49        4PZ         0.00008   0.00010  -0.00085   0.00696   0.01509
  50        5D 0        0.00082   0.00008  -0.00048  -0.00541  -0.00766
  51        5D+1       -0.00053   0.00003  -0.00026   0.00213   0.00316
  52        5D-1       -0.00011  -0.00001  -0.00055  -0.00165  -0.00421
  53        5D+2       -0.00148  -0.00023   0.00068   0.00873   0.01104
  54        5D-2        0.00071  -0.00023   0.00044  -0.00130  -0.00451
  55 4   H  1S         -0.00026  -0.00004  -0.00010   0.02241   0.05920
  56        2S         -0.00068   0.00008  -0.00151   0.01956   0.05663
  57        3S          0.00072   0.00035   0.00137  -0.01117  -0.00896
  58        4PX        -0.00019   0.00011  -0.00091   0.00504   0.00966
  59        4PY        -0.00048   0.00004  -0.00137   0.00373   0.00923
  60        4PZ         0.00035  -0.00003   0.00125  -0.00282  -0.00775
  61 5   H  1S          0.00011   0.00004   0.00001   0.00305   0.00919
  62        2S         -0.00039  -0.00016   0.00048   0.00635   0.00903
  63        3S          0.00031   0.00019   0.00035  -0.00386  -0.00036
  64        4PX        -0.00008  -0.00003   0.00030   0.00071   0.00041
  65        4PY         0.00007  -0.00000  -0.00029  -0.00099  -0.00209
  66        4PZ         0.00000  -0.00000  -0.00002  -0.00031  -0.00040
                           6         7         8         9        10
                           O         O         O         O         O
     Eigenvalues --    -0.65377  -0.55591  -0.52988  -0.47762  -0.40078
   1 1   N  1S          0.04476   0.03102  -0.01207   0.02602   0.00349
   2        2S          0.07133   0.05012  -0.01935   0.04182   0.00566
   3        2PX         0.09811  -0.01140  -0.02127  -0.12244   0.01356
   4        2PY        -0.02116   0.19348   0.05205  -0.04360  -0.09170
   5        2PZ         0.04014  -0.03250   0.21088   0.02348   0.03656
   6        3S         -0.22002  -0.15375   0.05969  -0.13230  -0.02122
   7        3PX         0.13935  -0.01984  -0.03251  -0.16977   0.01522
   8        3PY        -0.03366   0.29863   0.08094  -0.06359  -0.13897
   9        3PZ         0.06250  -0.04922   0.32520   0.03574   0.05616
  10        4S         -0.22505  -0.15897   0.06182  -0.16333  -0.00229
  11        4PX         0.07160   0.02026  -0.01627  -0.13279   0.10946
  12        4PY        -0.02474   0.20839   0.05325  -0.05754  -0.10744
  13        4PZ         0.03327  -0.04033   0.23198   0.03279   0.04563
  14        5D 0       -0.00063  -0.00087  -0.00269  -0.00044   0.00201
  15        5D+1       -0.00527  -0.00027   0.00369   0.00281   0.01201
  16        5D-1        0.00192  -0.00258   0.00803   0.00147   0.00165
  17        5D+2        0.00303  -0.01320  -0.00279   0.00373   0.00764
  18        5D-2        0.00658  -0.00249  -0.00048   0.00007  -0.03244
  19 2   N  1S         -0.03558  -0.02441   0.01337  -0.07363  -0.00301
  20        2S         -0.05636  -0.03921   0.02134  -0.11734  -0.00505
  21        2PX         0.00766  -0.00340  -0.02926   0.20234   0.06269
  22        2PY        -0.01561   0.11569   0.03059   0.04384  -0.13926
  23        2PZ         0.01467  -0.01806   0.13192   0.02248   0.05000
  24        3S          0.16458   0.11695  -0.06258   0.33357   0.01394
  25        3PX         0.01265  -0.01167  -0.04158   0.27596   0.09135
  26        3PY        -0.02447   0.17694   0.04818   0.05892  -0.21158
  27        3PZ         0.02362  -0.02840   0.20438   0.03409   0.07542
  28        4S          0.15581   0.09613  -0.08081   0.56972  -0.03614
  29        4PX        -0.00209   0.00678  -0.02064   0.13775   0.09424
  30        4PY        -0.00880   0.09718   0.02795   0.02854  -0.15533
  31        4PZ         0.00908  -0.01235   0.11244   0.02089   0.06060
  32        5D 0       -0.00009   0.00056  -0.00155   0.01243   0.00046
  33        5D+1       -0.00488   0.00464  -0.03225  -0.00440  -0.00855
  34        5D-1       -0.00143   0.00084  -0.00844  -0.00193  -0.00224
  35        5D+2       -0.00349   0.01232   0.00674  -0.02153  -0.01316
  36        5D-2        0.00417  -0.02578  -0.00667  -0.00948   0.02053
  37 3   N  1S         -0.04756  -0.02860   0.01837   0.00477  -0.02120
  38        2S         -0.07484  -0.04573   0.02930   0.00759  -0.03372
  39        2PX        -0.16604  -0.01496   0.02327   0.07058  -0.01225
  40        2PY        -0.05669   0.11570   0.02774  -0.03073   0.15261
  41        2PZ         0.05740  -0.02067   0.10486   0.00911  -0.05340
  42        3S          0.20778   0.13508  -0.08707  -0.01757   0.09242
  43        3PX        -0.24145  -0.01571   0.03132   0.10436  -0.01913
  44        3PY        -0.08238   0.17792   0.04335  -0.04902   0.22498
  45        3PZ         0.08700  -0.02891   0.16244   0.01396  -0.07399
  46        4S          0.26003   0.17446  -0.09048  -0.06654   0.25654
  47        4PX        -0.09406  -0.01556   0.02615   0.06558   0.00823
  48        4PY        -0.04125   0.10760   0.02993  -0.02700   0.18912
  49        4PZ         0.04933  -0.00894   0.10446   0.00301  -0.04703
  50        5D 0        0.00929  -0.00075   0.00915  -0.00211  -0.00098
  51        5D+1       -0.00713  -0.00439   0.02493   0.00760  -0.00094
  52        5D-1       -0.01049   0.00865  -0.00343  -0.00165   0.01162
  53        5D+2       -0.01972   0.00600   0.00155   0.00501  -0.00068
  54        5D-2        0.00833   0.02065   0.00427  -0.00901  -0.00276
  55 4   H  1S          0.15510  -0.02852  -0.00211  -0.01864  -0.09334
  56        2S          0.18595  -0.04626  -0.00377  -0.02130  -0.15954
  57        3S          0.03427  -0.01058  -0.00180  -0.01107  -0.05240
  58        4PX         0.00480  -0.00757   0.00300   0.00479  -0.01328
  59        4PY         0.01558   0.00357   0.00269  -0.00294  -0.00055
  60        4PZ        -0.01179   0.00221   0.00829   0.00084   0.00635
  61 5   H  1S          0.02496   0.04705   0.00229  -0.02835   0.11567
  62        2S          0.03393   0.06595   0.00023  -0.04780   0.18502
  63        3S          0.01450   0.03225   0.00110  -0.02217   0.13868
  64        4PX        -0.00021   0.00327   0.00056  -0.00107   0.00229
  65        4PY        -0.00508  -0.00401   0.00079   0.00302  -0.00572
  66        4PZ        -0.00001  -0.00106   0.00204   0.00061  -0.00186
                          11        12        13        14        15
                           O         O         V         V         V
     Eigenvalues --    -0.32061  -0.20794  -0.04487   0.00114   0.03790
   1 1   N  1S         -0.00581  -0.01485   0.00928   0.00518  -0.00814
   2        2S         -0.00954  -0.02416   0.01448   0.00839  -0.01317
   3        2PX        -0.01930  -0.01734  -0.01491  -0.02308  -0.01191
   4        2PY        -0.00603  -0.09880   0.14781   0.11631  -0.00115
   5        2PZ        -0.03266  -0.01134  -0.13130   0.19065   0.01941
   6        3S          0.03273   0.06767  -0.02142  -0.02074   0.02676
   7        3PX        -0.02960  -0.01949  -0.03711  -0.03587  -0.04722
   8        3PY        -0.00711  -0.14955   0.22481   0.17894   0.00167
   9        3PZ        -0.04840  -0.01773  -0.20183   0.29248   0.02889
  10        4S          0.01010   0.14885  -0.27257  -0.10333   0.11047
  11        4PX         0.00670  -0.09146   0.09986  -0.08552   0.25055
  12        4PY        -0.01288  -0.19360   0.32790   0.27369  -0.01241
  13        4PZ        -0.04243  -0.02388  -0.28201   0.45538   0.07151
  14        5D 0       -0.00312   0.00423  -0.00404  -0.00221   0.01222
  15        5D+1       -0.04713   0.00445   0.01965  -0.00971   0.00191
  16        5D-1       -0.00536   0.00231   0.00286  -0.00341  -0.00566
  17        5D+2        0.00296  -0.01528   0.01257   0.00902  -0.02147
  18        5D-2       -0.01268   0.03220  -0.00836   0.00228  -0.01401
  19 2   N  1S          0.00000   0.00422  -0.00470  -0.00319   0.01173
  20        2S         -0.00001   0.00736  -0.00813  -0.00530   0.01945
  21        2PX         0.02699  -0.01753   0.00926   0.00988   0.04134
  22        2PY        -0.04164   0.16454  -0.14206  -0.09492   0.01370
  23        2PZ        -0.16605   0.01462   0.13646  -0.16472  -0.02028
  24        3S         -0.00139  -0.03310   0.03597   0.02165  -0.08176
  25        3PX         0.03785  -0.02584   0.00952   0.01293   0.05859
  26        3PY        -0.06214   0.24235  -0.20554  -0.13534   0.02225
  27        3PZ        -0.24810   0.02047   0.19546  -0.23333  -0.03057
  28        4S          0.00184   0.07225  -0.06650   0.03815  -0.23041
  29        4PX         0.03524  -0.07831   0.07101   0.02906   0.13243
  30        4PY        -0.05742   0.28559  -0.30573  -0.24043   0.05693
  31        4PZ        -0.23419   0.02930   0.31260  -0.41649  -0.05279
  32        5D 0        0.00062   0.00139  -0.00096   0.00045  -0.00134
  33        5D+1        0.01960  -0.00035   0.00397  -0.00992  -0.00047
  34        5D-1        0.00548   0.00001   0.00143  -0.00325  -0.00111
  35        5D+2       -0.00333   0.00074   0.00465   0.00357   0.00350
  36        5D-2        0.00342  -0.00750  -0.00424  -0.00603  -0.00042
  37 3   N  1S          0.02511   0.03561   0.02286   0.00397   0.03465
  38        2S          0.04037   0.05726   0.03622   0.00623   0.05462
  39        2PX         0.03114  -0.00104   0.09176   0.02804   0.01216
  40        2PY         0.05514  -0.08273  -0.09750  -0.12057   0.11596
  41        2PZ         0.21391  -0.02701   0.03060  -0.12023  -0.07353
  42        3S         -0.12350  -0.17767  -0.09067  -0.01268  -0.14486
  43        3PX         0.04210  -0.01553   0.13589   0.04262  -0.02442
  44        3PY         0.08196  -0.11811  -0.13566  -0.16870   0.14802
  45        3PZ         0.31270  -0.04473   0.03295  -0.16738  -0.09493
  46        4S         -0.14961  -0.36440  -0.27227  -0.10511  -0.61415
  47        4PX         0.05540  -0.00028   0.24328   0.04569   0.28267
  48        4PY         0.09781  -0.15218  -0.21935  -0.31289   0.37391
  49        4PZ         0.34927  -0.04715   0.07558  -0.32050  -0.23942
  50        5D 0        0.01188  -0.00914  -0.00548  -0.00646  -0.00066
  51        5D+1        0.01302  -0.00270  -0.01391   0.01990  -0.00433
  52        5D-1       -0.00580   0.00013  -0.00416  -0.00045   0.00087
  53        5D+2        0.00273  -0.00735   0.00084  -0.00488   0.00593
  54        5D-2        0.00077  -0.02518   0.00893   0.00355   0.01362
  55 4   H  1S          0.03014  -0.00343   0.07521  -0.01244   0.05622
  56        2S          0.03764  -0.01271   0.16119  -0.01920  -0.01070
  57        3S          0.01812   0.03355   0.21614  -0.03075   1.58439
  58        4PX         0.00640   0.00214   0.00117   0.00582  -0.02077
  59        4PY         0.00880  -0.00645  -0.00554  -0.01433  -0.01665
  60        4PZ         0.01752  -0.00270   0.00026  -0.01688   0.01488
  61 5   H  1S          0.05818   0.17757   0.07022   0.04610  -0.03598
  62        2S          0.08741   0.34734   0.14318   0.08669  -0.08125
  63        3S          0.08227   0.44817   0.29321   0.30890  -0.24984
  64        4PX        -0.00059  -0.00414  -0.00465  -0.00263  -0.00161
  65        4PY         0.00160   0.00315   0.01069   0.00972  -0.00354
  66        4PZ         0.00548   0.00192   0.00608  -0.00287  -0.00128
                          16        17        18        19        20
                           V         V         V         V         V
     Eigenvalues --     0.22054   0.25707   0.35774   0.42850   0.46510
   1 1   N  1S         -0.06857   0.02494  -0.00145   0.00157   0.04348
   2        2S         -0.11188   0.04211   0.00015  -0.00101   0.08361
   3        2PX        -0.08420   0.04260   0.04003  -0.16067  -0.05566
   4        2PY         0.06462  -0.05934  -0.03641  -0.05129   0.05710
   5        2PZ        -0.02405  -0.00426   0.04269   0.01816  -0.02791
   6        3S          0.29331  -0.15659  -0.07232   0.11575  -0.62136
   7        3PX        -0.14465   0.04004   0.10258  -0.26322  -0.05585
   8        3PY         0.10418  -0.10047  -0.06518  -0.09130   0.17132
   9        3PZ        -0.03016  -0.01249   0.06590   0.06326  -0.07292
  10        4S          2.47643  -0.70920   0.11481  -1.43099  -1.63466
  11        4PX        -0.40671   0.57965  -0.03589  -4.31087  -1.05483
  12        4PY         0.39909  -0.13162  -0.25744  -0.57840  -0.48192
  13        4PZ        -0.15782   0.07345   0.26795  -0.18315   0.09971
  14        5D 0        0.02982  -0.00548   0.00699  -0.01316   0.01610
  15        5D+1       -0.00738  -0.00290   0.01506   0.00264  -0.01262
  16        5D-1        0.00174  -0.00016  -0.02017  -0.00940   0.00188
  17        5D+2       -0.04790   0.00803  -0.01736   0.01669  -0.02784
  18        5D-2       -0.01379  -0.01269  -0.01780  -0.00322   0.00981
  19 2   N  1S          0.03979  -0.00172   0.01603  -0.04903   0.00925
  20        2S          0.06708  -0.00195   0.02858  -0.08258   0.02610
  21        2PX         0.14319  -0.02679   0.04140  -0.03148   0.06972
  22        2PY        -0.00912  -0.00380   0.00493   0.00834  -0.00312
  23        2PZ         0.01546   0.00078   0.00069   0.00670   0.00833
  24        3S         -0.25984  -0.01897  -0.14029   0.25267  -0.35211
  25        3PX         0.20977  -0.02085   0.07295  -0.01089   0.31750
  26        3PY        -0.00357  -0.03513  -0.03062   0.05369   0.07372
  27        3PZ         0.02050   0.00287   0.03962   0.03224   0.00922
  28        4S         -0.61923  -0.11245   0.05528   4.31261   2.14313
  29        4PX         0.62370  -0.09633   0.02162  -2.54287  -1.70736
  30        4PY        -0.07536   0.15599   0.18186  -0.90721  -0.48253
  31        4PZ         0.07787  -0.02192  -0.18380  -0.02750  -0.01934
  32        5D 0       -0.00070  -0.00230  -0.00332   0.00279   0.01720
  33        5D+1        0.00245   0.00119  -0.00734  -0.00590   0.00919
  34        5D-1        0.00179   0.00076  -0.00582  -0.00280   0.00100
  35        5D+2        0.00967  -0.00733  -0.00268  -0.00751  -0.01295
  36        5D-2       -0.00759   0.00665   0.00771   0.00180  -0.03924
  37 3   N  1S          0.04419  -0.01806   0.02468   0.01666   0.01135
  38        2S          0.07292  -0.02962   0.04406   0.02251   0.02542
  39        2PX        -0.20304   0.03653   0.03660   0.04464  -0.12036
  40        2PY        -0.00889   0.03472   0.06595   0.04839  -0.05193
  41        2PZ         0.00300   0.02040  -0.08032   0.00328   0.02750
  42        3S         -0.22183   0.09476  -0.18299   0.11082  -0.22405
  43        3PX        -0.28287   0.02431   0.01650   0.23559  -0.45852
  44        3PY         0.00483   0.08183   0.13359   0.07322  -0.12099
  45        3PZ        -0.00132   0.03763  -0.17458   0.01856   0.07226
  46        4S         -1.17617   0.46041  -0.46220  -3.48954   0.02492
  47        4PX        -1.17210   0.64587   0.71528  -2.04072   0.65592
  48        4PY        -0.06097  -0.14781   0.71587   0.80867   0.22803
  49        4PZ        -0.05543   0.01419  -0.55503  -0.56823  -0.09993
  50        5D 0       -0.00654   0.01795  -0.00501  -0.00664   0.01211
  51        5D+1       -0.00561   0.00410  -0.00644   0.01329  -0.00160
  52        5D-1        0.00221  -0.00501  -0.01147  -0.00002   0.00939
  53        5D+2        0.02448  -0.00068  -0.01211   0.02303  -0.02506
  54        5D-2        0.01720   0.00715   0.01023  -0.01750   0.01129
  55 4   H  1S          0.02193  -0.00625   0.13108   0.02338  -0.02531
  56        2S          0.16074   0.06840   1.95095   0.85168  -0.14692
  57        3S         -0.57358  -0.22434  -0.90267  -0.37512   0.16056
  58        4PX        -0.02987  -0.00263   0.03199   0.01915   0.03543
  59        4PY         0.02168   0.02310  -0.00539   0.02624   0.00432
  60        4PZ        -0.01227   0.01371  -0.00467  -0.01182  -0.01628
  61 5   H  1S         -0.03208  -0.12452   0.02011  -0.00168   0.01016
  62        2S         -0.33811  -1.22783   0.15378  -0.18399   0.10795
  63        3S          0.41299   1.69568  -0.04911   0.02144  -0.15713
  64        4PX        -0.01303   0.01224   0.03163  -0.04356   0.03238
  65        4PY        -0.00152  -0.00240   0.02530   0.00723   0.00051
  66        4PZ        -0.00232  -0.00243  -0.02674  -0.02733   0.00103
                          21        22        23        24        25
                           V         V         V         V         V
     Eigenvalues --     0.50628   0.53885   0.60201   0.64121   0.67830
   1 1   N  1S         -0.00639  -0.00806  -0.01061   0.03167   0.03613
   2        2S         -0.01236  -0.01477  -0.02091   0.06134   0.06896
   3        2PX        -0.02611  -0.00692  -0.03479  -0.02750  -0.10058
   4        2PY        -0.03841  -0.11066  -0.00629  -0.07107   0.09810
   5        2PZ        -0.10945   0.02275   0.04157  -0.00561   0.01021
   6        3S          0.08351   0.08915   0.13936  -0.38169  -0.41416
   7        3PX        -0.04501  -0.00198  -0.09800  -0.31189  -0.40366
   8        3PY        -0.13974  -0.46831  -0.02341  -0.24143   0.36401
   9        3PZ        -0.44248   0.10679   0.16126  -0.03598   0.02510
  10        4S         -0.35488  -0.28300  -0.61337   0.78983   0.39681
  11        4PX        -0.18096   0.23180   1.03760   0.75999   1.00732
  12        4PY         0.13472   0.66323   0.20265   0.35250  -0.93204
  13        4PZ         0.49314  -0.16986  -0.40407   0.14276  -0.10307
  14        5D 0        0.00818   0.01363   0.01060   0.00143  -0.01056
  15        5D+1       -0.00031   0.00129   0.06397   0.01323   0.01319
  16        5D-1       -0.01255   0.00948   0.02020  -0.00741  -0.00011
  17        5D+2        0.00118   0.01266  -0.01211   0.00746   0.01205
  18        5D-2       -0.00120  -0.01585   0.00553   0.01274  -0.04603
  19 2   N  1S         -0.00824  -0.00084  -0.01178   0.05192   0.03596
  20        2S         -0.01459  -0.00135  -0.02224   0.10012   0.07111
  21        2PX         0.01314   0.04996   0.00965  -0.12797  -0.09112
  22        2PY        -0.02220  -0.15391   0.03397   0.07112  -0.14964
  23        2PZ        -0.12258   0.03985   0.13303   0.01401   0.00135
  24        3S          0.05611  -0.01485   0.12330  -0.71557  -0.55448
  25        3PX         0.05930   0.17723   0.06083  -0.39767  -0.20853
  26        3PY        -0.07791  -0.54583   0.12991   0.23678  -0.50976
  27        3PZ        -0.44551   0.13748   0.46647   0.05738   0.00650
  28        4S          0.27973  -0.11940  -0.66858   0.01032   0.11403
  29        4PX        -0.31978  -0.26103   0.05410   0.54754   0.01378
  30        4PY         0.00007   0.63254  -0.14483  -0.39196   1.11630
  31        4PZ         0.49572  -0.14563  -0.59953  -0.14328   0.01276
  32        5D 0       -0.00015  -0.00045  -0.00084   0.00305   0.01118
  33        5D+1        0.03295  -0.00785  -0.02859  -0.00400  -0.00385
  34        5D-1        0.01066  -0.00190  -0.00150  -0.00373   0.00129
  35        5D+2       -0.00484  -0.01786   0.00203  -0.01102  -0.02891
  36        5D-2        0.00770   0.03612  -0.00649  -0.00664   0.00032
  37 3   N  1S         -0.00539   0.00753  -0.01358  -0.01413  -0.00289
  38        2S         -0.01020   0.01438  -0.02388  -0.02678  -0.00534
  39        2PX        -0.01726  -0.02250  -0.04383   0.05181   0.02816
  40        2PY        -0.01510  -0.07975   0.00707  -0.12965   0.05991
  41        2PZ        -0.14038   0.02556  -0.16518   0.00572  -0.03678
  42        3S          0.05655  -0.10477   0.06918   0.23639   0.05867
  43        3PX        -0.01710  -0.03317  -0.11049   0.15629   0.10237
  44        3PY        -0.08663  -0.27285   0.00367  -0.47024   0.18627
  45        3PZ        -0.48379   0.08237  -0.57686  -0.02115  -0.12372
  46        4S          0.03852   0.31016   1.17141  -0.33120   0.62638
  47        4PX        -0.10230   0.09530   0.46171  -0.15893  -0.19441
  48        4PY         0.07250   0.14150  -0.43821   0.93368  -0.17531
  49        4PZ         0.55242   0.02769   1.28937  -0.16197   0.33595
  50        5D 0       -0.01375  -0.00269  -0.01183   0.01694  -0.00900
  51        5D+1       -0.02801   0.00669  -0.03518   0.00286  -0.01285
  52        5D-1       -0.00078   0.00294   0.00342  -0.00121  -0.00217
  53        5D+2        0.01257   0.00153   0.02024  -0.00552   0.00840
  54        5D-2       -0.00120  -0.01564   0.00995  -0.02275   0.02069
  55 4   H  1S          0.01068  -0.02236   0.00477  -0.00694   0.00896
  56        2S         -0.01561  -0.31230  -0.52099   0.28208  -0.02962
  57        3S         -0.17414   0.48275  -0.04032   0.37699  -0.37966
  58        4PX        -0.02758  -0.02356  -0.09567   0.02271  -0.02615
  59        4PY        -0.01465   0.01414  -0.01246   0.07687  -0.02989
  60        4PZ         0.00800  -0.01853   0.02614  -0.03161   0.01225
  61 5   H  1S          0.00246   0.01952  -0.00979   0.02568   0.01958
  62        2S         -0.06167   0.10385  -0.08823  -0.15691  -0.01822
  63        3S         -0.02979  -0.38064   0.14587  -0.24156   0.07061
  64        4PX         0.00118   0.02254  -0.00552  -0.00999  -0.07526
  65        4PY         0.00901   0.00704  -0.01051   0.04048  -0.01465
  66        4PZ         0.02969   0.01118   0.08544  -0.00821   0.01032
                          26        27        28        29        30
                           V         V         V         V         V
     Eigenvalues --     0.68314   0.74062   0.77974   0.82286   0.98889
   1 1   N  1S          0.00443  -0.02621  -0.04602  -0.00461   0.00650
   2        2S          0.00900  -0.05263  -0.09091  -0.00871   0.00935
   3        2PX        -0.03198   0.03349  -0.15966   0.17732  -0.23007
   4        2PY        -0.06096   0.10976  -0.02376   0.02164   0.01035
   5        2PZ         0.16569   0.08678  -0.04207  -0.02458  -0.02547
   6        3S         -0.08163   0.40694   0.71974  -0.01040   0.00534
   7        3PX        -0.17626   0.03293  -0.55645   0.03280  -0.41104
   8        3PY        -0.21881   0.39384  -0.09757   0.06368   0.08709
   9        3PZ         0.56273   0.29153  -0.14827  -0.12424  -0.07687
  10        4S         -0.21000  -0.35992  -1.83684   1.05133   0.47732
  11        4PX         2.10548  -0.25888   2.84364   4.81805   6.84839
  12        4PY         0.83074  -1.39507   0.18962   0.47117   0.22394
  13        4PZ        -1.40900  -0.69990   0.68842   0.53012   0.47055
  14        5D 0        0.00781  -0.01888   0.00102   0.00590  -0.01486
  15        5D+1       -0.01641  -0.00274  -0.00192   0.03401  -0.00002
  16        5D-1        0.02261  -0.01884  -0.01580   0.00661   0.02800
  17        5D+2       -0.01069   0.00724  -0.01868   0.01209   0.01520
  18        5D-2       -0.01679   0.00370  -0.01356  -0.11096   0.03234
  19 2   N  1S          0.00985  -0.01967  -0.01167   0.01910  -0.05874
  20        2S          0.01919  -0.04023  -0.02427   0.03204  -0.11507
  21        2PX        -0.01477   0.07544  -0.04337   0.19498  -0.11287
  22        2PY         0.03283  -0.00904  -0.00438   0.07900  -0.00731
  23        2PZ        -0.13194  -0.05304   0.00651   0.00924  -0.00212
  24        3S         -0.16273   0.33760   0.11730  -0.11478   0.87199
  25        3PX         0.01850   0.16203  -0.15285   0.64458  -0.03294
  26        3PY         0.12520  -0.08400  -0.02918   0.17720   0.01711
  27        3PZ        -0.46452  -0.18332   0.03848   0.05438   0.00554
  28        4S         -1.38531   0.06103  -1.49016  -4.16582  -6.38145
  29        4PX         0.44226  -0.27867   0.44681   0.93547   2.36002
  30        4PY        -0.13806   0.55352   0.27323   0.62852   1.08814
  31        4PZ         1.15252   0.50440  -0.27489  -0.26931  -0.13018
  32        5D 0        0.00807  -0.02728  -0.01210  -0.01379   0.03094
  33        5D+1        0.00103   0.00167  -0.00400  -0.01714  -0.01144
  34        5D-1        0.00700  -0.00378  -0.00923  -0.00606  -0.00484
  35        5D+2       -0.01195   0.01940   0.01057  -0.01074  -0.08792
  36        5D-2       -0.00277   0.02090   0.01390   0.06254  -0.00564
  37 3   N  1S         -0.00107  -0.03007  -0.04633  -0.03134   0.07874
  38        2S         -0.00035  -0.05858  -0.09190  -0.05671   0.15575
  39        2PX         0.00360  -0.03444  -0.18320   0.15278  -0.03769
  40        2PY         0.05037  -0.14245   0.04427  -0.01966  -0.03487
  41        2PZ        -0.02160  -0.01324   0.05568   0.04102  -0.00339
  42        3S         -0.09410   0.47740   0.71177   0.27097  -1.30376
  43        3PX        -0.03505  -0.01025  -0.39013   0.48558   0.02627
  44        3PY         0.17221  -0.50984   0.22738  -0.00084  -0.24451
  45        3PZ        -0.03769  -0.12806   0.17186   0.13533   0.13553
  46        4S          1.89957  -1.19957   1.04172   3.18580   6.85678
  47        4PX         0.73154   0.17671   2.10448   0.79867   2.32895
  48        4PY        -1.00466   1.77806  -0.34264  -0.73984  -0.51789
  49        4PZ         0.82994   0.01711  -0.56071   0.15146   0.48664
  50        5D 0       -0.00328   0.00297  -0.06152   0.00754  -0.00809
  51        5D+1       -0.01472   0.01780   0.03286  -0.02634  -0.03165
  52        5D-1        0.00553  -0.00383   0.01438   0.01758   0.00329
  53        5D+2       -0.00773   0.03644   0.06663   0.00381   0.05164
  54        5D-2        0.03124  -0.03320  -0.02090   0.09699   0.06260
  55 4   H  1S          0.04200  -0.02331   0.00049   0.05867   0.06440
  56        2S         -0.56544   0.60631   0.37478  -0.46247  -0.74588
  57        3S          0.01627   0.56293   0.69416   0.01632  -0.14082
  58        4PX        -0.15806   0.08385  -0.01675  -0.12789  -0.25189
  59        4PY        -0.04090   0.14730   0.08550  -0.01113  -0.07245
  60        4PZ         0.00192  -0.04249  -0.14935  -0.05106   0.10614
  61 5   H  1S         -0.00372   0.02063  -0.01028   0.02792   0.02263
  62        2S          0.16298  -0.40382   0.33757   0.10915  -0.25710
  63        3S          0.04667  -0.01896   0.13568  -0.02433   0.06057
  64        4PX         0.02009  -0.05011   0.04039  -0.05078   0.15922
  65        4PY        -0.01687   0.04963   0.05975   0.05055  -0.00553
  66        4PZ         0.06951  -0.02922  -0.03610   0.05492   0.10503
                          31        32        33        34        35
                           V         V         V         V         V
     Eigenvalues --     1.12219   1.22094   1.37017   1.39797   1.43453
   1 1   N  1S          0.08070  -0.00650   0.00027   0.00129   0.00275
   2        2S          0.15731  -0.01286   0.00086   0.00278   0.00517
   3        2PX        -0.07533  -0.00789   0.07956  -0.03357   0.00489
   4        2PY        -0.07044  -0.00980   0.03348  -0.00840   0.01295
   5        2PZ         0.00604  -0.00014   0.00153   0.00123   0.00976
   6        3S         -1.40152   0.13023   0.04914  -0.03931  -0.06479
   7        3PX         0.05109  -0.02611   0.25486  -0.11702  -0.04467
   8        3PY        -0.07081  -0.03805   0.07151  -0.02574  -0.01969
   9        3PZ        -0.00002  -0.02867  -0.00858   0.06515  -0.02981
  10        4S          6.95138  -0.89334  -1.39210   0.64461   0.28120
  11        4PX         0.52684   0.66777  -3.89477   2.64227   1.87211
  12        4PY         0.94539   0.14870  -0.71060   0.46049   0.46632
  13        4PZ        -0.09505   0.24166  -0.10516  -0.28349   0.13738
  14        5D 0       -0.09275   0.12102   0.00122  -0.00300   0.06793
  15        5D+1        0.02431   0.05062   0.03437  -0.28919   0.30003
  16        5D-1       -0.00790  -0.02428   0.04186   0.06399   0.10480
  17        5D+2        0.17663   0.01936  -0.03924   0.03657   0.00971
  18        5D-2        0.05454   0.00239  -0.00426  -0.07465   0.13071
  19 2   N  1S         -0.06541   0.00351   0.01909  -0.00577  -0.00103
  20        2S         -0.12614   0.00618   0.03921  -0.01259  -0.00224
  21        2PX        -0.11321   0.00617   0.00731   0.00454   0.02275
  22        2PY        -0.04176   0.00008  -0.01450   0.02169  -0.01447
  23        2PZ        -0.00019  -0.01474  -0.00069   0.04615  -0.04905
  24        3S          1.07832  -0.06469  -0.36354   0.12811   0.04645
  25        3PX         0.04194  -0.01429  -0.07064   0.06295   0.09507
  26        3PY         0.00061  -0.00167  -0.04743   0.04515  -0.00255
  27        3PZ         0.00153  -0.01866  -0.00386   0.06770  -0.07771
  28        4S         -4.46812  -0.11101   4.05471  -2.47652  -1.72594
  29        4PX         2.17658  -0.01306  -1.56335   0.90288   0.62466
  30        4PY         0.36812   0.00357  -0.45855   0.30926   0.16299
  31        4PZ         0.03250  -0.07163  -0.00627   0.11499  -0.04315
  32        5D 0        0.08672   0.01771  -0.01330   0.00722   0.03174
  33        5D+1       -0.00309  -0.03328  -0.01491   0.15435  -0.19032
  34        5D-1       -0.00018  -0.02157   0.00979   0.09694  -0.04006
  35        5D+2       -0.09685   0.01635   0.03658  -0.05194   0.05130
  36        5D-2       -0.08300   0.01102  -0.01020   0.05405  -0.05750
  37 3   N  1S         -0.03632   0.00563  -0.00359   0.00838  -0.00170
  38        2S         -0.07140   0.01441  -0.00487   0.02010  -0.00541
  39        2PX         0.01251  -0.03222   0.04360  -0.01447   0.03325
  40        2PY         0.00907   0.03924   0.00729   0.00437  -0.01621
  41        2PZ         0.01807  -0.00308   0.01404  -0.07625   0.03010
  42        3S          0.71365  -0.20421   0.03827  -0.27027   0.03212
  43        3PX        -0.09464  -0.03596   0.10235   0.06403  -0.01503
  44        3PY         0.09861  -0.01022   0.03287  -0.00099   0.10899
  45        3PZ        -0.04601   0.03529  -0.03742  -0.15680   0.01528
  46        4S         -2.94051   1.25558  -2.37554   2.35981   1.25670
  47        4PX        -1.14118   0.50885  -1.11651   0.45413   0.80046
  48        4PY         0.00627  -0.36153   0.36271  -0.55586  -0.78762
  49        4PZ        -0.23669  -0.18361  -0.13364   0.70725   0.21633
  50        5D 0        0.02719   0.24323   0.00011   0.05918  -0.10144
  51        5D+1       -0.02169  -0.09692  -0.01159   0.25961  -0.25828
  52        5D-1        0.01075  -0.06880   0.09785  -0.05064   0.10849
  53        5D+2       -0.01853   0.16382   0.04476  -0.00206  -0.05882
  54        5D-2        0.04912  -0.00678   0.07582   0.04609  -0.18505
  55 4   H  1S         -0.00513   0.04347  -0.07664  -0.10036   0.00238
  56        2S          0.42837  -0.26577   0.19504  -0.45330  -0.23922
  57        3S          0.00340   0.05445  -0.11433  -0.05306  -0.00531
  58        4PX        -0.06643  -0.01938  -0.39749   0.13738  -0.18982
  59        4PY         0.12712   0.42996   0.30229  -0.08829   0.16897
  60        4PZ        -0.14160   0.60742  -0.12316   0.12947   0.09359
  61 5   H  1S         -0.01751   0.03936  -0.00241   0.00553   0.01073
  62        2S          0.28452   0.17243   0.02510  -0.01330   0.08417
  63        3S         -0.15371  -0.17468  -0.11155  -0.03794   0.22999
  64        4PX        -0.11119  -0.31145   0.62638  -0.00648   0.06569
  65        4PY         0.13581   0.25268   0.50514   0.32455  -0.35108
  66        4PZ        -0.01406   0.08984  -0.01650  -0.71145  -0.66419
                          36        37        38        39        40
                           V         V         V         V         V
     Eigenvalues --     1.54141   1.66889   1.68259   1.71810   1.83745
   1 1   N  1S         -0.01112  -0.00009  -0.00185   0.00170   0.00638
   2        2S         -0.02360  -0.00074  -0.00377   0.00233   0.01409
   3        2PX         0.01326   0.04248   0.01516   0.06445  -0.00381
   4        2PY        -0.02789   0.02931   0.03737   0.01285   0.03714
   5        2PZ        -0.00969  -0.04438   0.01336  -0.00352  -0.03731
   6        3S          0.34871   0.02171   0.07112   0.00536  -0.12633
   7        3PX         0.18311   0.03928   0.07486  -0.01144   0.06287
   8        3PY         0.03277   0.04483   0.06010  -0.00995   0.02094
   9        3PZ        -0.01389  -0.05841   0.01828  -0.00988  -0.00163
  10        4S         -3.72426  -0.55205  -1.11586  -0.52917   0.46951
  11        4PX        -2.52968  -0.75438  -1.12370   1.67348  -0.75556
  12        4PY        -0.84233  -0.36253  -0.34197   0.02418  -0.09634
  13        4PZ        -0.00019   0.25452   0.05306   0.39231  -0.27007
  14        5D 0       -0.11577   0.06273   0.53784  -0.20877   0.00173
  15        5D+1        0.04510  -0.16416  -0.11388  -0.22946   0.26588
  16        5D-1        0.03353   0.59162  -0.21601  -0.30644  -0.05655
  17        5D+2       -0.13878   0.08703   0.34577  -0.12743   0.05634
  18        5D-2       -0.25776   0.05508  -0.01079   0.21395  -0.10216
  19 2   N  1S          0.00674   0.00450   0.00403   0.00549   0.00057
  20        2S          0.01328   0.01018   0.00857   0.01188   0.00120
  21        2PX        -0.04954   0.00346  -0.01714   0.03685  -0.00932
  22        2PY         0.03066  -0.00255   0.02792  -0.02923   0.02702
  23        2PZ        -0.00429   0.00347   0.02769   0.05357  -0.05071
  24        3S         -0.20909  -0.08855  -0.09814  -0.07557  -0.00604
  25        3PX        -0.22659   0.01579  -0.05519   0.12287  -0.01026
  26        3PY         0.00400   0.00303   0.03443  -0.02235   0.03248
  27        3PZ        -0.01000   0.00512   0.04013   0.07660  -0.06802
  28        4S          3.74556   0.89930   1.43318  -1.09615   0.43210
  29        4PX        -1.47538  -0.37631  -0.56544   0.30857  -0.12020
  30        4PY        -0.41275  -0.05736  -0.16993   0.21785  -0.10140
  31        4PZ        -0.02352  -0.09346  -0.04320  -0.16190   0.15984
  32        5D 0       -0.12148   0.04548   0.40735  -0.18001  -0.04143
  33        5D+1       -0.03254  -0.13506   0.17181   0.31337  -0.19171
  34        5D-1       -0.00244   0.41537  -0.10354  -0.19285  -0.35541
  35        5D+2       -0.10374   0.05485   0.13332   0.04076  -0.10876
  36        5D-2        0.09531   0.01817   0.26971  -0.21487   0.15294
  37 3   N  1S          0.03178  -0.01969   0.00293  -0.01490  -0.00428
  38        2S          0.06691  -0.04166   0.00568  -0.02823  -0.00438
  39        2PX        -0.03426  -0.00866  -0.00027   0.03543  -0.08908
  40        2PY        -0.02015  -0.02927  -0.02212  -0.03602  -0.06476
  41        2PZ         0.00874   0.01812   0.00389   0.01238   0.09902
  42        3S         -0.63427   0.31878  -0.04514   0.11284  -0.04549
  43        3PX        -0.10990  -0.14526  -0.06390  -0.01620  -0.09122
  44        3PY        -0.11065  -0.17441   0.00751  -0.04728  -0.15027
  45        3PZ        -0.03486   0.14204   0.00952   0.09241   0.04112
  46        4S          0.31363  -0.75019  -0.50111   1.30322  -0.55141
  47        4PX         0.56553   0.28245   0.22300   1.20295  -0.46304
  48        4PY         0.51032   0.51649   0.19992  -0.18531   0.52488
  49        4PZ         0.19716  -0.45827  -0.08425  -0.23529   0.05239
  50        5D 0       -0.04772   0.09676   0.07387   0.04715   0.01837
  51        5D+1       -0.06982   0.13110  -0.02719   0.10604   0.09289
  52        5D-1        0.07077   0.17094   0.02665   0.14084   0.25427
  53        5D+2        0.07594   0.00920   0.07444  -0.02425   0.11975
  54        5D-2        0.28003  -0.10742  -0.01963  -0.17376  -0.10647
  55 4   H  1S          0.11546  -0.19022  -0.06471  -0.37613  -0.72436
  56        2S         -0.27655   0.73180   0.28027   0.71952   1.04539
  57        3S          0.16049  -0.12937  -0.04942  -0.24917  -0.46098
  58        4PX        -0.39119  -0.37299  -0.24794  -0.53028   0.10356
  59        4PY         0.09939  -0.15907  -0.00345   0.10896  -0.43326
  60        4PZ        -0.36637   0.11362  -0.22438   0.09888   0.09598
  61 5   H  1S         -0.03071  -0.00597   0.01169   0.04024  -0.27217
  62        2S         -0.06684   0.00591  -0.02774   0.04954   0.17689
  63        3S         -0.13897   0.01347   0.09196   0.14832  -0.21501
  64        4PX        -0.58022  -0.15797  -0.04809  -0.14431  -0.11083
  65        4PY         0.07139  -0.10589  -0.15858  -0.24881   0.33183
  66        4PZ        -0.17790   0.15942  -0.03037  -0.00965   0.04370
                          41        42        43        44        45
                           V         V         V         V         V
     Eigenvalues --     1.88986   2.05244   2.09412   2.17832   2.20197
   1 1   N  1S         -0.01142   0.00271   0.00348   0.00407   0.01099
   2        2S         -0.02357   0.00725   0.00704   0.01010   0.02761
   3        2PX         0.01453   0.00557  -0.01909  -0.00304   0.04948
   4        2PY        -0.01584   0.07183  -0.01871   0.08033   0.09176
   5        2PZ        -0.00809   0.04572   0.03063   0.05311  -0.10281
   6        3S          0.27583  -0.06867  -0.04480  -0.15179  -0.23902
   7        3PX        -0.11808   0.02248   0.02363   0.02352   0.04477
   8        3PY        -0.01214   0.00479  -0.02661   0.00326  -0.04136
   9        3PZ         0.00202   0.02643   0.01856  -0.00590   0.00295
  10        4S         -1.16752   0.07078   0.25628   0.49789  -0.26391
  11        4PX         3.21649   0.75774   0.30883  -0.20617   1.44607
  12        4PY        -0.26111   0.19205   0.13912   0.42762   0.38294
  13        4PZ        -0.03015   0.08858   0.12540   0.28264  -0.09229
  14        5D 0        0.07637   0.23205  -0.27602  -0.17579  -0.26463
  15        5D+1        0.04623   0.00946   0.06415  -0.09237  -0.05681
  16        5D-1        0.02661  -0.25526  -0.40402   0.20136   0.05810
  17        5D+2       -0.13722   0.21076  -0.20951   0.08117   0.11144
  18        5D-2        0.43027   0.10260  -0.10116  -0.03431   0.12916
[...]
 Frc consts  --     2.3632                36.3836                 7.8845
 IR Inten    --    10.2951               431.3610                59.8246
  Atom  AN      X      Y      Z        X      Y      Z        X      Y      Z
     1   7     0.07   0.03  -0.03     0.72   0.12   0.01    -0.00   0.00  -0.00
     2   7     0.22   0.03   0.01    -0.53  -0.11  -0.00    -0.00  -0.00  -0.00
     3   7    -0.22  -0.07   0.03    -0.17  -0.01   0.01     0.04   0.05  -0.04
     4   1    -0.89   0.17  -0.20    -0.37   0.03  -0.09    -0.47  -0.66   0.58
     5   1    -0.06   0.15   0.05     0.04  -0.07  -0.03     0.00  -0.01  -0.00

 -------------------
 - Thermochemistry -
 -------------------
 Temperature   298.150 Kelvin.  Pressure   1.00000 Atm.
 Atom     1 has atomic number  7 and mass  14.00307
 Atom     2 has atomic number  7 and mass  14.00307
 Atom     3 has atomic number  7 and mass  14.00307
 Atom     4 has atomic number  1 and mass   1.00783
 Atom     5 has atomic number  1 and mass   1.00783
 Molecular mass:    44.02487 amu.
 Principal axes and moments of inertia in atomic units:
                           1         2         3
     Eigenvalues --    12.02667 162.77522 171.57022
           X            0.99908  -0.03503  -0.02487
           Y            0.03468   0.99930  -0.01424
           Z            0.02535   0.01337   0.99959
 This molecule is an asymmetric top.
 Rotational symmetry number  1.
 Rotational temperatures (Kelvin)      7.20181     0.53211     0.50483
 Rotational constants (GHZ):         150.06165    11.08732    10.51897
    1 imaginary frequencies ignored.
 Zero-point vibrational energy      61190.5 (Joules/Mol)
                                   14.62489 (Kcal/Mol)
 Warning -- explicit consideration of   3 degrees of freedom as
           vibrations may cause significant error
 Vibrational temperatures:    461.82   625.78   823.83   934.84  1690.54
          (Kelvin)           1850.65  3258.53  5073.05
 
 Zero-point correction=                           0.023306 (Hartree/Particle)
 Thermal correction to Energy=                    0.027151
 Thermal correction to Enthalpy=                  0.028095
 Thermal correction to Gibbs Free Energy=        -0.001453
 Sum of electronic and zero-point Energies=           -165.199708
 Sum of electronic and thermal Energies=              -165.195863
 Sum of electronic and thermal Enthalpies=            -165.194919
 Sum of electronic and thermal Free Energies=         -165.224467
 
                     E (Thermal)             CV                S
                      KCal/Mol        Cal/Mol-Kelvin    Cal/Mol-Kelvin
 Total                   17.038             11.389             62.190
 Electronic               0.000              0.000              1.377
 Translational            0.889              2.981             37.273
 Rotational               0.889              2.981             20.446
 Vibrational             15.260              5.427              3.094
 Vibration     1          0.706              1.633              1.305
 Vibration     2          0.796              1.394              0.843
 Vibration     3          0.929              1.091              0.499
                       Q            Log10(Q)             Ln(Q)
 Total Bot       0.466001D+01          0.668387          1.539017
 Total V=0       0.244620D+12         11.388491         26.222970
 Vib (Bot)       0.309329D-10        -10.509580        -24.199202
 Vib (Bot)    1  0.585305D+00         -0.232618         -0.535623
 Vib (Bot)    2  0.399054D+00         -0.398968         -0.918657
 Vib (Bot)    3  0.268100D+00         -0.571703         -1.316396
 Vib (V=0)       0.162377D+01          0.210525          0.484751
 Vib (V=0)    1  0.126979D+01          0.103733          0.238854
 Vib (V=0)    2  0.113972D+01          0.056799          0.130785
 Vib (V=0)    3  0.106734D+01          0.028304          0.065172
 Electronic      0.200000D+01          0.301030          0.693147
 Translational   0.114816D+08          7.060002         16.256256
 Rotational      0.656046D+04          3.816934          8.788816
 
                                                                  TS
                                                             IR Spectrum
 
     3                                             2                                  1   1                                          
     5                                             2                                  2   1                  6  5    4   3           
     2                                             6                                  8   7                  5  7    3   2           
     6                                             5                                  6   5                  0  3    5   1           
 
     X                                             X                                  X   X                  X  X    X   X           
     X                                             X                                      X                          X               
     X                                             X                                      X                          X               
                                                   X                                      X                                          
                                                   X                                      X                                          
                                                   X                                      X                                          
                                                   X                                                                                 
                                                   X                                                                                 
                                                   X                                                                                 
                                                   X                                                                                 
                                                   X                                                                                 
                                                   X                                                                                 
                                                   X                                                                                 
                                                   X                                                                                 
                                                   X                                                                                 
                                                   X                                                                                 
                                                   X                                                                                 
                                                   X                                                                                 
                                                   X                                                                                 
                                                   X                                                                                 
 
 ***** Axes restored to original set *****
 -------------------------------------------------------------------
 Center     Atomic                   Forces (Hartrees/Bohr)
 Number     Number              X              Y              Z
 -------------------------------------------------------------------
      1        7           0.000101966    0.000034979   -0.000071290
      2        7          -0.000033590   -0.000031151   -0.000051160
      3        7          -0.000091958   -0.000019343    0.000128398
      4        1           0.000002050    0.000015622   -0.000010327
      5        1           0.000021533   -0.000000107    0.000004378
 -------------------------------------------------------------------
 Cartesian Forces:  Max     0.000128398 RMS     0.000056316
 Force constants in Cartesian coordinates: 
                1             2             3             4             5 
      1  0.159272D+00
      2 -0.146415D-01  0.114421D+00
      3 -0.208723D+00  0.231975D-01  0.169556D+01
      4 -0.622508D-01  0.107403D-01  0.992240D-01  0.457629D-01
      5  0.152180D-01 -0.583198D-01 -0.461599D-01 -0.749632D-02  0.321432D-01
      6  0.130177D+00 -0.227831D-01 -0.111635D+01 -0.143096D+00  0.326783D-01
      7 -0.915708D-01  0.206637D-01  0.771819D-01  0.152826D-01 -0.165187D-01
      8  0.136916D-01 -0.250351D-01  0.342171D-01 -0.900651D-02  0.899958D-02
      9  0.952677D-01 -0.144319D-01 -0.522200D+00  0.446647D-01  0.175919D-01
     10  0.578385D-02  0.629799D-03  0.361486D-01 -0.170594D-02 -0.708949D-04
     11  0.443707D-02 -0.126217D-01 -0.406299D-03 -0.995769D-03  0.668688D-02
     12 -0.266164D-01  0.507046D-03 -0.615103D-01  0.173002D-02  0.449950D-03
     13 -0.112344D-01 -0.173923D-01 -0.383108D-02  0.291118D-02  0.886785D-02
     14 -0.187052D-01 -0.184445D-01 -0.108484D-01  0.675829D-02  0.104902D-01
     15  0.989515D-02  0.135103D-01  0.450879D-02 -0.252301D-02 -0.456024D-02
                6             7             8             9            10 
      6  0.117601D+01
      7 -0.902829D-02  0.331465D+00
      8 -0.375919D-01 -0.138428D-01 -0.304979D-02
      9 -0.615730D-01  0.114740D+00  0.127126D-01  0.764875D+00
     10  0.331560D-02 -0.267774D+00 -0.121181D-01 -0.234053D+00  0.262561D+00
     11 -0.814962D-03 -0.848291D-02 -0.273647D-02  0.773059D-02  0.685236D-02
     12  0.101955D-01 -0.172643D+00  0.216534D-02 -0.179413D+00  0.196312D+00
     13  0.186315D-01  0.125977D-01  0.212757D-01 -0.206190D-01  0.113554D-02
     14  0.285116D-01  0.181806D-01  0.218218D-01 -0.236032D-01  0.470679D-02
     15 -0.827524D-02 -0.102500D-01 -0.115032D-01 -0.168852D-02 -0.172259D-02
               11            12            13            14            15 
     11  0.721672D-02
     12 -0.281091D-02  0.229024D+00
     13 -0.181075D-02  0.121813D-02 -0.540996D-02
     14  0.145459D-02 -0.311424D-03 -0.109405D-01 -0.153221D-01
     15 -0.369842D-02  0.170387D-02  0.460047D-02  0.625147D-02  0.375110D-02
 Force constants in internal coordinates: 
                1             2             3             4             5 
      1  0.119454D+01
      2  0.631539D-01  0.655472D+00
      3 -0.903278D-02 -0.120308D-02  0.442136D+00
      4  0.344285D-01  0.276644D-01 -0.364660D-02 -0.244587D-01
      5  0.400860D-01  0.717280D-01  0.160357D-02 -0.329036D-01  0.120674D+00
      6 -0.873958D-02  0.920012D-01  0.258500D-01  0.520610D-02  0.122479D-01
      7 -0.261902D-02 -0.132712D-01 -0.112946D-02  0.480234D-03 -0.109713D-02
      8  0.292581D-02 -0.191757D-01 -0.708632D-02 -0.148624D-02  0.127236D-02
      9  0.165065D-02 -0.225083D-01 -0.573557D-02  0.595474D-03 -0.503727D-02
     10 -0.391833D-02  0.201050D-01  0.593550D-02  0.341961D-02  0.643328D-02
                6             7             8             9            10 
      6  0.130414D+00
      7 -0.263463D-01  0.400780D-01
      8 -0.360303D-01 -0.735039D-02  0.240416D-01
      9 -0.210497D-01  0.107579D-02  0.109320D-02  0.102822D-01
     10  0.212507D-01 -0.373985D-03 -0.265056D-02 -0.554588D-02  0.885966D-02
 Leave Link  716 at Fri Apr 25 16:32:45 2014, MaxMem=   65536000 cpu:       0.2
 (Enter /apps/gaussian/g09/l103.exe)

 GradGradGradGradGradGradGradGradGradGradGradGradGradGradGradGradGradGrad
 Berny optimization.
 Internal  Forces:  Max     0.000136471 RMS     0.000052857
 Search for a saddle point.
 Step number   1 out of a maximum of    2
 All quantities printed in internal units (Hartrees-Bohrs-Radians)
 Swaping is turned off.
 Second derivative matrix not updated -- analytic derivatives used.
 The second derivative matrix:
                          R1        R2        R3        R4        A1
           R1           1.19454
           R2           0.06315   0.65547
           R3          -0.00903  -0.00120   0.44214
           R4           0.03443   0.02766  -0.00365  -0.02446
           A1           0.04009   0.07173   0.00160  -0.03290   0.12067
           A2          -0.00874   0.09200   0.02585   0.00521   0.01225
           A3          -0.00262  -0.01327  -0.00113   0.00048  -0.00110
           A4           0.00293  -0.01918  -0.00709  -0.00149   0.00127
           D1           0.00165  -0.02251  -0.00574   0.00060  -0.00504
           D2          -0.00392   0.02011   0.00594   0.00342   0.00643
                          A2        A3        A4        D1        D2
           A2           0.13041
           A3          -0.02635   0.04008
           A4          -0.03603  -0.00735   0.02404
           D1          -0.02105   0.00108   0.00109   0.01028
           D2           0.02125  -0.00037  -0.00265  -0.00555   0.00886
     Eigenvalues ---   -0.03591   0.00416   0.01418   0.04228   0.12000
     Eigenvalues ---    0.13133   0.44437   0.67646   1.205181000.00000
 Eigenvectors required to have negative eigenvalues:
                          R4        A1        D2        R2        R1
   1                    0.96383   0.24088  -0.08202  -0.05751  -0.03218
                          D1        A3        A2        A4        R3
   1                   -0.02964  -0.02147  -0.01864  -0.01411   0.00720
 Angle between quadratic step and forces=  73.25 degrees.
 Linear search not attempted -- option 19 set.
 Iteration  1 RMS(Cart)=  0.00041960 RMS(Int)=  0.00000043
 Iteration  2 RMS(Cart)=  0.00000017 RMS(Int)=  0.00000009
 Variable       Old X    -DE/DX   Delta X   Delta X   Delta X     New X
                                 (Linear)    (Quad)   (Total)
    R1        2.14169  -0.00005   0.00000  -0.00000  -0.00000   2.14169
    R2        2.34438  -0.00014   0.00000  -0.00026  -0.00026   2.34412
    R3        1.92438   0.00000   0.00000  -0.00003  -0.00003   1.92435
    R4        3.24412   0.00001   0.00000  -0.00117  -0.00117   3.24295
    A1        2.90843   0.00008   0.00000   0.00045   0.00045   2.90888
    A2        1.94475   0.00001   0.00000   0.00030   0.00030   1.94505
    A3        2.06089   0.00001   0.00000   0.00041   0.00041   2.06131
    A4        1.82887  -0.00000   0.00000   0.00016   0.00016   1.82902
    D1       -2.80249  -0.00001   0.00000  -0.00022  -0.00022  -2.80271
    D2       -0.68472   0.00001   0.00000   0.00057   0.00057  -0.68415
         Item               Value     Threshold  Converged?
 Maximum Force            0.000136     0.000450     YES
 RMS     Force            0.000053     0.000300     YES
 Maximum Displacement     0.000793     0.001800     YES
 RMS     Displacement     0.000420     0.001200     YES
 Predicted change in Energy=-3.658553D-08
 Optimization completed.
    -- Stationary point found.
                           ----------------------------
                           !   Optimized Parameters   !
                           ! (Angstroms and Degrees)  !
 --------------------------                            --------------------------
 ! Name  Definition              Value          Derivative Info.                !
 --------------------------------------------------------------------------------
 ! R1    R(1,2)                  1.1333         -DE/DX =    0.0                 !
 ! R2    R(1,3)                  1.2406         -DE/DX =   -0.0001              !
 ! R3    R(3,4)                  1.0183         -DE/DX =    0.0                 !
 ! R4    R(3,5)                  1.7167         -DE/DX =    0.0                 !
 ! A1    A(2,1,3)              166.6408         -DE/DX =    0.0001              !
 ! A2    A(1,3,4)              111.426          -DE/DX =    0.0                 !
 ! A3    A(1,3,5)              118.0805         -DE/DX =    0.0                 !
 ! A4    A(4,3,5)              104.7864         -DE/DX =    0.0                 !
 ! D1    D(2,1,3,4)           -160.5706         -DE/DX =    0.0                 !
 ! D2    D(2,1,3,5)            -39.2316         -DE/DX =    0.0                 !
 --------------------------------------------------------------------------------
 GradGradGradGradGradGradGradGradGradGradGradGradGradGradGradGradGradGrad

 Leave Link  103 at Fri Apr 25 16:32:45 2014, MaxMem=   65536000 cpu:       0.0
 (Enter /apps/gaussian/g09/l9999.exe)

 Test job not archived.
 1\1\GINC-ROMEO164\Freq\UM06\6-311G(d,p)\H2N3(2)\ROOT\25-Apr-2014\0\\#P
  Geom=AllCheck Guess=TCheck SCRF=Check Test GenChk UM06/6-311G(d,p) Fr
 eq\\TS\\0,2\N,0.0673380456,-0.0450978993,0.0099067945\N,-0.0574328457,
 -0.0018268397,1.1355195513\N,0.4664901458,0.0118412111,-1.1633389422\H
 ,-0.3105250297,0.0024342497,-1.8214967707\H,1.418287684,1.3627222782,-
 1.6284276329\\Version=AM64L-G09RevA.02\State=2-A\HF=-165.2230141\S2=0.
 761938\S2-1=0.\S2A=0.750015\RMSD=9.592e-10\RMSF=5.632e-05\ZeroPoint=0.
 0233062\Thermal=0.0271511\Dipole=-0.6550744,-0.181889,-0.4770095\Dipol
 eDeriv=-0.0320085,-0.2273593,-0.2207875,-0.2456985,-0.0420868,0.196532
 2,-0.6699547,-0.3117939,1.9965897,-0.1021501,0.0443883,0.0210059,0.111
 8465,-0.0274375,-0.1212536,0.5879297,0.4379626,-1.1722343,0.0586936,0.
 1901391,0.2036135,0.2472773,-0.1378567,-0.2858388,0.0273715,-0.146473,
 -1.0378576,0.1688911,-0.0072124,-0.0819098,-0.0232925,0.3252989,0.0388
 663,0.0570888,0.0429005,0.3241708,-0.093426,0.0000442,0.078078,-0.0901
 327,-0.1179178,0.171694,-0.0024352,-0.0225962,-0.1106687\Polar=20.2720
 685,8.3609629,19.5245603,-10.9505788,-8.5791073,45.4027561\PG=C01 [X(H
 2N3)]\NImag=1\\0.15927217,-0.01464151,0.11442114,-0.20872338,0.0231975
 3,1.69555622,-0.06225077,0.01074031,0.09922398,0.04576294,0.01521803,-
 0.05831983,-0.04615990,-0.00749632,0.03214315,0.13017695,-0.02278305,-
 1.11635477,-0.14309574,0.03267833,1.17600745,-0.09157080,0.02066371,0.
 07718193,0.01528259,-0.01651866,-0.00902829,0.33146497,0.01369161,-0.0
 2503509,0.03421706,-0.00900651,0.00899958,-0.03759188,-0.01384277,-0.0
 0304979,0.09526768,-0.01443187,-0.52219997,0.04466475,0.01759186,-0.06
 157298,0.11473974,0.01271264,0.76487451,0.00578385,0.00062980,0.036148
 56,-0.00170594,-0.00007089,0.00331560,-0.26777445,-0.01211806,-0.23405
 316,0.26256100,0.00443707,-0.01262172,-0.00040630,-0.00099577,0.006686
 88,-0.00081496,-0.00848291,-0.00273647,0.00773059,0.00685236,0.0072167
 2,-0.02661639,0.00050705,-0.06151027,0.00173002,0.00044995,0.01019554,
 -0.17264336,0.00216534,-0.17941304,0.19631159,-0.00281091,0.22902390,-
 0.01123445,-0.01739231,-0.00383108,0.00291118,0.00886785,0.01863148,0.
 01259769,0.02127573,-0.02061900,0.00113554,-0.00181075,0.00121813,-0.0
 0540996,-0.01870520,-0.01844449,-0.01084840,0.00675829,0.01049023,0.02
 851157,0.01818064,0.02182178,-0.02360322,0.00470679,0.00145459,-0.0003
 1142,-0.01094052,-0.01532211,0.00989515,0.01351035,0.00450879,-0.00252
 301,-0.00456024,-0.00827524,-0.01025002,-0.01150316,-0.00168852,-0.001
 72259,-0.00369842,0.00170387,0.00460047,0.00625147,0.00375110\\-0.0001
 0197,-0.00003498,0.00007129,0.00003359,0.00003115,0.00005116,0.0000919
 6,0.00001934,-0.00012840,-0.00000205,-0.00001562,0.00001033,-0.0000215
 3,0.00000011,-0.00000438\\\@


 KNOWLEDGE IS OF TWO KINDS:  WE KNOW A SUBJECT OURSELVES OR WE KNOW 
 WHERE WE CAN FIND INFORMATION UPON IT.

                                    -- SAMUEL JOHNSON
 Job cpu time:  0 days  0 hours  1 minutes 35.6 seconds.
 File lengths (MBytes):  RWF=      9 Int=      0 D2E=      0 Chk=      1 Scr=      1
 Normal termination of Gaussian 09 at Fri Apr 25 16:32:45 2014.
************
total 988
drwxrwxr-x 2 henon henon   4096 25 avril 16:32 .
drwxrwxr-x 3 henon henon   4096 25 avril 16:32 ..
-rw-r--r-- 1 henon henon    398 25 avril 16:32 hhn3.inp
-rw-rw-r-- 1 henon henon 995752 25 avril 16:32 hhn3.out
Run on 12 cores
romeo164
************
