 Entering Gaussian System, Link 0=g03
 Initial command:
 /soft/g03/g03/l1.exe /local/run/antares-adm.116015.0/Gau-29637.inp -scrdir=/local/run/antares-adm.116015.0/
 Entering Link 1 = /soft/g03/g03/l1.exe PID=     29638.
  
 Copyright (c) 1988,1990,1992,1993,1995,1998,2003,2004, Gaussian, Inc.
                  All Rights Reserved.
  
 This is the Gaussian(R) 03 program.  It is based on the
 the Gaussian(R) 98 system (copyright 1998, Gaussian, Inc.),
 the Gaussian(R) 94 system (copyright 1995, Gaussian, Inc.),
 the Gaussian 92(TM) system (copyright 1992, Gaussian, Inc.),
 the Gaussian 90(TM) system (copyright 1990, Gaussian, Inc.),
 the Gaussian 88(TM) system (copyright 1988, Gaussian, Inc.),
 the Gaussian 86(TM) system (copyright 1986, Carnegie Mellon
 University), and the Gaussian 82(TM) system (copyright 1983,
 Carnegie Mellon University). Gaussian is a federally registered
 trademark of Gaussian, Inc.
  
 This software contains proprietary and confidential information,
 including trade secrets, belonging to Gaussian, Inc.
  
 This software is provided under written license and may be
 used, copied, transmitted, or stored only in accord with that
 written license.
  
 The following legend is applicable only to US Government
 contracts under FAR:
  
                    RESTRICTED RIGHTS LEGEND
  
 Use, reproduction and disclosure by the US Government is
 subject to restrictions as set forth in subparagraphs (a)
 and (c) of the Commercial Computer Software - Restricted
 Rights clause in FAR 52.227-19.
  
 Gaussian, Inc.
 340 Quinnipiac St., Bldg. 40, Wallingford CT 06492
  
  
 ---------------------------------------------------------------
 Warning -- This program may not be used in any manner that
 competes with the business of Gaussian, Inc. or will provide
 assistance to any competitor of Gaussian, Inc.  The licensee
 of this program is prohibited from giving any competitor of
 Gaussian, Inc. access to this program.  By using this program,
 the user acknowledges that Gaussian, Inc. is engaged in the
 business of creating and licensing software in the field of
 computational chemistry and represents and warrants to the
 licensee that it is not a competitor of Gaussian, Inc. and that
 it will not use this program in any manner prohibited above.
 ---------------------------------------------------------------
  

 Cite this work as:
 Gaussian 03, Revision C.02,
 M. J. Frisch, G. W. Trucks, H. B. Schlegel, G. E. Scuseria, 
 M. A. Robb, J. R. Cheeseman, J. A. Montgomery, Jr., T. Vreven, 
 K. N. Kudin, J. C. Burant, J. M. Millam, S. S. Iyengar, J. Tomasi, 
 V. Barone, B. Mennucci, M. Cossi, G. Scalmani, N. Rega, 
 G. A. Petersson, H. Nakatsuji, M. Hada, M. Ehara, K. Toyota, 
 R. Fukuda, J. Hasegawa, M. Ishida, T. Nakajima, Y. Honda, O. Kitao, 
 H. Nakai, M. Klene, X. Li, J. E. Knox, H. P. Hratchian, J. B. Cross, 
 C. Adamo, J. Jaramillo, R. Gomperts, R. E. Stratmann, O. Yazyev, 
 A. J. Austin, R. Cammi, C. Pomelli, J. W. Ochterski, P. Y. Ayala, 
 K. Morokuma, G. A. Voth, P. Salvador, J. J. Dannenberg, 
 V. G. Zakrzewski, S. Dapprich, A. D. Daniels, M. C. Strain, 
 O. Farkas, D. K. Malick, A. D. Rabuck, K. Raghavachari, 
 J. B. Foresman, J. V. Ortiz, Q. Cui, A. G. Baboul, S. Clifford, 
 J. Cioslowski, B. B. Stefanov, G. Liu, A. Liashenko, P. Piskorz, 
 I. Komaromi, R. L. Martin, D. J. Fox, T. Keith, M. A. Al-Laham, 
 C. Y. Peng, A. Nanayakkara, M. Challacombe, P. M. W. Gill, 
 B. Johnson, W. Chen, M. W. Wong, C. Gonzalez, and J. A. Pople, 
 Gaussian, Inc., Wallingford CT, 2004.
 
 ******************************************
 Gaussian 03:  AM64L-G03RevC.02 12-Jun-2004
                17-Apr-2013 
 ******************************************
 -------------------------------------------------
 #P MP2 6-31G** iop(6/7=3) gfinput pop=full # freq
 -------------------------------------------------
 1/10=4,30=1,38=1/1,3;
 2/17=6,18=5,40=1/2;
 3/5=1,6=6,7=101,11=9,16=1,24=10,25=1,30=1/1,2,3;
 4//1;
 5/5=2,38=5/2;
 8/6=3,8=1,10=2,19=11,30=-1/1;
 9/15=3,16=-3/6;
 11/6=1,8=1,15=11,17=12,24=-1,27=1,28=-2,29=300,32=6,42=3/1,2,10;
 10/6=2,21=1/2;
 8/6=4,8=1,10=2,19=11,30=-1/11,4;
 10/5=1,20=4/2;
 11/12=2,14=11,16=1,17=2,28=-2,42=3/2,10,12;
 6/7=3/1;
 7/8=1,10=1,12=2,25=1,44=2/1,2,3,16;
 1/10=4,30=1/3;
 99//99;
 Leave Link    1 at Wed Apr 17 22:15:45 2013, MaxMem=          0 cpu:       0.1
 (Enter /soft/g03/g03/l101.exe)
 ---
 job
 ---
 Symbolic Z-matrix:
 Charge =  0 Multiplicity = 2
 6                    -0.28257   0.        0. 
 1                    -0.51559  -0.27999   1.01658 
 1                    -0.51558  -0.74039  -0.75077 
 1                    -0.5156    1.02038  -0.26581 
 1                     1.21996   0.00001   0. 
 1                     2.02224   0.       0. 
 
                    Isotopes and Nuclear Properties:

  Atom         1           2           3           4           5           6
 IAtWgt=          12           1           1           1           1           1
 AtmWgt=  12.0000000   1.0078250   1.0078250   1.0078250   1.0078250   1.0078250
 IAtSpn=           0           1           1           1           1           1
 AtZEff=   0.0000000   0.0000000   0.0000000   0.0000000   0.0000000   0.0000000
 AtQMom=   0.0000000   0.0000000   0.0000000   0.0000000   0.0000000   0.0000000
 AtGFac=   0.0000000   2.7928460   2.7928460   2.7928460   2.7928460   2.7928460
 Leave Link  101 at Wed Apr 17 22:15:45 2013, MaxMem=    6291456 cpu:       0.0
 (Enter /soft/g03/g03/l103.exe)

 GradGradGradGradGradGradGradGradGradGradGradGradGradGradGradGradGradGrad
 Berny optimization.
 Initialization pass.
 Trust Radius=3.00D-01 FncErr=1.00D-07 GrdErr=1.00D-07
 Number of steps in this run=   2 maximum allowed number of steps=   2.
 GradGradGradGradGradGradGradGradGradGradGradGradGradGradGradGradGradGrad

 Leave Link  103 at Wed Apr 17 22:15:45 2013, MaxMem=    6291456 cpu:       0.0
 (Enter /soft/g03/g03/l202.exe)
                          Input orientation:                          
 ---------------------------------------------------------------------
 Center     Atomic     Atomic              Coordinates (Angstroms)
 Number     Number      Type              X           Y           Z
 ---------------------------------------------------------------------
    1          6             0       -0.282571    0.000000    0.000000
    2          1             0       -0.515586   -0.279994    1.016577
    3          1             0       -0.515584   -0.740387   -0.750768
    4          1             0       -0.515596    1.020375   -0.265808
    5          1             0        1.219955    0.000006    0.000000
    6          1             0        2.022239    0.000001   -0.000001
 ---------------------------------------------------------------------
                    Distance matrix (angstroms):
                    1          2          3          4          5
     1  C    0.000000
     2  H    1.079871   0.000000
     3  H    1.079871   1.826327   0.000000
     4  H    1.079870   1.826327   1.826327   0.000000
     5  H    1.502526   2.030747   2.030746   2.030750   0.000000
     6  H    2.304810   2.748160   2.748158   2.748167   0.802284
                    6
     6  H    0.000000
 This structure is nearly, but not quite of a higher symmetry.
 Consider Symm=Loose if the higher symmetry is desired.
 Stoichiometry    CH5(2)
 Framework group  C1[X(CH5)]
 Deg. of freedom    12
 Full point group                 C1      NOp   1
 Largest Abelian subgroup         C1      NOp   1
 Largest concise Abelian subgroup C1      NOp   1
                         Standard orientation:                         
 ---------------------------------------------------------------------
 Center     Atomic     Atomic              Coordinates (Angstroms)
 Number     Number      Type              X           Y           Z
 ---------------------------------------------------------------------
    1          6             0        0.242614    0.059812    0.131937
    2          1             0        0.326278    1.127453   -0.006864
    3          1             0        0.958035   -0.537059   -0.413991
    4          1             0        0.043735   -0.262985    1.143059
    5          1             0       -1.047449   -0.258231   -0.569611
    6          1             0       -1.736283   -0.428053   -0.944215
 ---------------------------------------------------------------------
 Rotational constants (GHZ):    150.3401636     56.7969515     56.7969448
 Leave Link  202 at Wed Apr 17 22:15:45 2013, MaxMem=    6291456 cpu:       0.0
 (Enter /soft/g03/g03/l301.exe)
 Standard basis: 6-31G(d,p) (6D, 7F)
 AO basis set in the form of general basis input:
  1 0
 S   6 1.00       0.000000000000
      0.3047524880D+04  0.1834737132D-02
      0.4573695180D+03  0.1403732281D-01
      0.1039486850D+03  0.6884262226D-01
      0.2921015530D+02  0.2321844432D+00
      0.9286662960D+01  0.4679413484D+00
      0.3163926960D+01  0.3623119853D+00
 SP   3 1.00       0.000000000000
      0.7868272350D+01 -0.1193324198D+00  0.6899906659D-01
      0.1881288540D+01 -0.1608541517D+00  0.3164239610D+00
      0.5442492580D+00  0.1143456438D+01  0.7443082909D+00
 SP   1 1.00       0.000000000000
      0.1687144782D+00  0.1000000000D+01  0.1000000000D+01
 D   1 1.00       0.000000000000
      0.8000000000D+00  0.1000000000D+01
 ****
  2 0
 S   3 1.00       0.000000000000
      0.1873113696D+02  0.3349460434D-01
      0.2825394365D+01  0.2347269535D+00
      0.6401216923D+00  0.8137573261D+00
 S   1 1.00       0.000000000000
      0.1612777588D+00  0.1000000000D+01
 P   1 1.00       0.000000000000
      0.1100000000D+01  0.1000000000D+01
 ****
  3 0
 S   3 1.00       0.000000000000
      0.1873113696D+02  0.3349460434D-01
      0.2825394365D+01  0.2347269535D+00
      0.6401216923D+00  0.8137573261D+00
 S   1 1.00       0.000000000000
      0.1612777588D+00  0.1000000000D+01
 P   1 1.00       0.000000000000
      0.1100000000D+01  0.1000000000D+01
 ****
  4 0
 S   3 1.00       0.000000000000
      0.1873113696D+02  0.3349460434D-01
      0.2825394365D+01  0.2347269535D+00
      0.6401216923D+00  0.8137573261D+00
 S   1 1.00       0.000000000000
      0.1612777588D+00  0.1000000000D+01
 P   1 1.00       0.000000000000
      0.1100000000D+01  0.1000000000D+01
 ****
  5 0
 S   3 1.00       0.000000000000
      0.1873113696D+02  0.3349460434D-01
      0.2825394365D+01  0.2347269535D+00
      0.6401216923D+00  0.8137573261D+00
 S   1 1.00       0.000000000000
      0.1612777588D+00  0.1000000000D+01
 P   1 1.00       0.000000000000
      0.1100000000D+01  0.1000000000D+01
 ****
  6 0
 S   3 1.00       0.000000000000
      0.1873113696D+02  0.3349460434D-01
      0.2825394365D+01  0.2347269535D+00
      0.6401216923D+00  0.8137573261D+00
 S   1 1.00       0.000000000000
      0.1612777588D+00  0.1000000000D+01
 P   1 1.00       0.000000000000
      0.1100000000D+01  0.1000000000D+01
 ****

 There are    40 symmetry adapted basis functions of A   symmetry.
 Integral buffers will be    131072 words long.
 Raffenetti 2 integral format.
 Two-electron integral symmetry is turned on.
    40 basis functions,    63 primitive gaussians,    40 cartesian basis functions
     6 alpha electrons        5 beta electrons
       nuclear repulsion energy        15.1996630094 Hartrees.
 IExCor=   0 DFT=F Ex=HF Corr=None ExCW=0 ScaHFX=  1.000000
 ScaDFX=  1.000000  1.000000  1.000000  1.000000
 IRadAn=      0 IRanWt=     -1 IRanGd=            0 ICorTp=0
 NAtoms=    6 NActive=    6 NUniq=    6 SFac= 1.00D+00 NAtFMM=   60 Big=F
 Leave Link  301 at Wed Apr 17 22:15:45 2013, MaxMem=    6291456 cpu:       0.0
 (Enter /soft/g03/g03/l302.exe)
 NPDir=0 NMtPBC=     1 NCelOv=     1 NCel=       1 NClECP=     1 NCelD=      1
         NCelK=      1 NCelE2=     1 NClLst=     1 CellRange=     0.0.
 One-electron integrals computed using PRISM.
 NBasis=    40 RedAO= T  NBF=    40
 NBsUse=    40 1.00D-06 NBFU=    40
 Leave Link  302 at Wed Apr 17 22:15:45 2013, MaxMem=    6291456 cpu:       0.1
 (Enter /soft/g03/g03/l303.exe)
 DipDrv:  MaxL=1.
 Leave Link  303 at Wed Apr 17 22:15:45 2013, MaxMem=    6291456 cpu:       0.0
 (Enter /soft/g03/g03/l401.exe)
 Harris functional with IExCor=  205 diagonalized for initial guess.
 ExpMin= 1.61D-01 ExpMax= 3.05D+03 ExpMxC= 4.57D+02 IAcc=1 IRadAn=         1 AccDes= 1.00D-06
 HarFok:  IExCor= 205 AccDes= 1.00D-06 IRadAn=         1 IDoV=1
 ScaDFX=  1.000000  1.000000  1.000000  1.000000
 Harris En= -40.8349475369842    
 Initial guess orbital symmetries:
 Alpha Orbitals:
       Occupied  (A) (A) (A) (A) (A) (A)
       Virtual   (A) (A) (A) (A) (A) (A) (A) (A) (A) (A) (A) (A)
                 (A) (A) (A) (A) (A) (A) (A) (A) (A) (A) (A) (A)
                 (A) (A) (A) (A) (A) (A) (A) (A) (A) (A)
 Beta  Orbitals:
       Occupied  (A) (A) (A) (A) (A)
       Virtual   (A) (A) (A) (A) (A) (A) (A) (A) (A) (A) (A) (A)
                 (A) (A) (A) (A) (A) (A) (A) (A) (A) (A) (A) (A)
                 (A) (A) (A) (A) (A) (A) (A) (A) (A) (A) (A)
 The electronic state of the initial guess is 2-A.
 <S**2> of initial guess= 0.7500
 Leave Link  401 at Wed Apr 17 22:15:46 2013, MaxMem=    6291456 cpu:       0.1
 (Enter /soft/g03/g03/l502.exe)
 UHF open shell SCF:
 Requested convergence on RMS density matrix=1.00D-08 within 128 cycles.
 Requested convergence on MAX density matrix=1.00D-06.
 Requested convergence on             energy=1.00D-06.
 No special actions if energy rises.
 Using DIIS extrapolation, IDIIS=  1040.
 Integral symmetry usage will be decided dynamically.
 Keep R1 and R2 integrals in memory in canonical form, NReq=     1550873.
 IEnd=     23199 IEndB=     23199 NGot=   6291456 MDV=   5613304
 LenX=   5613304
 Symmetry not used in FoFDir.
 MinBra= 0 MaxBra= 2 Meth= 1.
 IRaf=       0 NMat=   1 IRICut=       1 DoRegI=T DoRafI=F ISym2E= 0 JSym2E=0.

 Cycle   1  Pass 1  IDiag  1:
 E= -40.5481676050536    
 DIIS: error= 5.66D-02 at cycle   1 NSaved=   1.
 NSaved= 1 IEnMin= 1 EnMin= -40.5481676050536     IErMin= 1 ErrMin= 5.66D-02
 ErrMax= 5.66D-02 EMaxC= 1.00D-01 BMatC= 4.71D-01 BMatP= 4.71D-01
 IDIUse=3 WtCom= 4.34D-01 WtEn= 5.66D-01
 Coeff-Com:  0.100D+01
 Coeff-En:   0.100D+01
 Coeff:      0.100D+01
 Gap=     0.564 Goal=   None    Shift=    0.000
 Gap=     0.692 Goal=   None    Shift=    0.000
 GapD=    0.564 DampG=2.000 DampE=0.500 DampFc=1.0000 IDamp=-1.
 RMSDP=9.21D-03 MaxDP=1.35D-01              OVMax= 1.68D-01

 Cycle   2  Pass 1  IDiag  1:
 E= -40.6463310553009     Delta-E=       -0.098163450247 Rises=F Damp=F
 DIIS: error= 1.92D-02 at cycle   2 NSaved=   2.
 NSaved= 2 IEnMin= 2 EnMin= -40.6463310553009     IErMin= 2 ErrMin= 1.92D-02
 ErrMax= 1.92D-02 EMaxC= 1.00D-01 BMatC= 7.02D-02 BMatP= 4.71D-01
 IDIUse=3 WtCom= 8.08D-01 WtEn= 1.92D-01
 Coeff-Com:  0.230D+00 0.770D+00
 Coeff-En:   0.000D+00 0.100D+01
 Coeff:      0.186D+00 0.814D+00
 Gap=     0.610 Goal=   None    Shift=    0.000
 Gap=     0.684 Goal=   None    Shift=    0.000
 RMSDP=3.51D-03 MaxDP=5.42D-02 DE=-9.82D-02 OVMax= 5.66D-02

 Cycle   3  Pass 1  IDiag  1:
 E= -40.6642118241176     Delta-E=       -0.017880768817 Rises=F Damp=F
 DIIS: error= 6.61D-03 at cycle   3 NSaved=   3.
 NSaved= 3 IEnMin= 3 EnMin= -40.6642118241176     IErMin= 3 ErrMin= 6.61D-03
 ErrMax= 6.61D-03 EMaxC= 1.00D-01 BMatC= 2.72D-03 BMatP= 7.02D-02
 IDIUse=3 WtCom= 9.34D-01 WtEn= 6.61D-02
 Coeff-Com: -0.452D-01 0.137D-01 0.103D+01
 Coeff-En:   0.000D+00 0.000D+00 0.100D+01
 Coeff:     -0.422D-01 0.128D-01 0.103D+01
 Gap=     0.602 Goal=   None    Shift=    0.000
 Gap=     0.662 Goal=   None    Shift=    0.000
 RMSDP=8.85D-04 MaxDP=1.70D-02 DE=-1.79D-02 OVMax= 2.46D-02

 Cycle   4  Pass 1  IDiag  1:
 E= -40.6657141974265     Delta-E=       -0.001502373309 Rises=F Damp=F
 DIIS: error= 2.82D-03 at cycle   4 NSaved=   4.
 NSaved= 4 IEnMin= 4 EnMin= -40.6657141974265     IErMin= 4 ErrMin= 2.82D-03
 ErrMax= 2.82D-03 EMaxC= 1.00D-01 BMatC= 4.49D-04 BMatP= 2.72D-03
 IDIUse=3 WtCom= 9.72D-01 WtEn= 2.82D-02
 Coeff-Com:  0.220D-01-0.519D-01-0.791D+00 0.182D+01
 Coeff-En:   0.000D+00 0.000D+00 0.000D+00 0.100D+01
 Coeff:      0.214D-01-0.504D-01-0.768D+00 0.180D+01
 Gap=     0.609 Goal=   None    Shift=    0.000
 Gap=     0.674 Goal=   None    Shift=    0.000
 RMSDP=7.84D-04 MaxDP=1.18D-02 DE=-1.50D-03 OVMax= 1.77D-02

 Cycle   5  Pass 1  IDiag  1:
 E= -40.6661297053875     Delta-E=       -0.000415507961 Rises=F Damp=F
 DIIS: error= 4.05D-04 at cycle   5 NSaved=   5.
 NSaved= 5 IEnMin= 5 EnMin= -40.6661297053875     IErMin= 5 ErrMin= 4.05D-04
 ErrMax= 4.05D-04 EMaxC= 1.00D-01 BMatC= 2.66D-05 BMatP= 4.49D-04
 IDIUse=3 WtCom= 9.96D-01 WtEn= 4.05D-03
 Coeff-Com: -0.879D-02 0.286D-01 0.370D+00-0.980D+00 0.159D+01
 Coeff-En:   0.000D+00 0.000D+00 0.000D+00 0.000D+00 0.100D+01
 Coeff:     -0.875D-02 0.284D-01 0.368D+00-0.976D+00 0.159D+01
 Gap=     0.609 Goal=   None    Shift=    0.000
 Gap=     0.676 Goal=   None    Shift=    0.000
 RMSDP=1.58D-04 MaxDP=1.90D-03 DE=-4.16D-04 OVMax= 2.48D-03

 Cycle   6  Pass 1  IDiag  1:
 E= -40.6661543392139     Delta-E=       -0.000024633826 Rises=F Damp=F
 DIIS: error= 1.73D-04 at cycle   6 NSaved=   6.
 NSaved= 6 IEnMin= 6 EnMin= -40.6661543392139     IErMin= 6 ErrMin= 1.73D-04
 ErrMax= 1.73D-04 EMaxC= 1.00D-01 BMatC= 3.89D-06 BMatP= 2.66D-05
 IDIUse=3 WtCom= 9.98D-01 WtEn= 1.73D-03
 Coeff-Com:  0.109D-02-0.542D-02-0.604D-01 0.189D+00-0.668D+00 0.154D+01
 Coeff-En:   0.000D+00 0.000D+00 0.000D+00 0.000D+00 0.000D+00 0.100D+01
 Coeff:      0.109D-02-0.541D-02-0.603D-01 0.189D+00-0.667D+00 0.154D+01
 Gap=     0.609 Goal=   None    Shift=    0.000
 Gap=     0.676 Goal=   None    Shift=    0.000
 RMSDP=7.61D-05 MaxDP=7.35D-04 DE=-2.46D-05 OVMax= 9.64D-04

 Cycle   7  Pass 1  IDiag  1:
 E= -40.6661585125533     Delta-E=       -0.000004173339 Rises=F Damp=F
 DIIS: error= 5.81D-05 at cycle   7 NSaved=   7.
 NSaved= 7 IEnMin= 7 EnMin= -40.6661585125533     IErMin= 7 ErrMin= 5.81D-05
 ErrMax= 5.81D-05 EMaxC= 1.00D-01 BMatC= 5.67D-07 BMatP= 3.89D-06
 IDIUse=1 WtCom= 1.00D+00 WtEn= 0.00D+00
 Coeff-Com:  0.725D-03-0.164D-02-0.241D-01 0.536D-01 0.776D-01-0.790D+00
 Coeff-Com:  0.168D+01
 Coeff:      0.725D-03-0.164D-02-0.241D-01 0.536D-01 0.776D-01-0.790D+00
 Coeff:      0.168D+01
 Gap=     0.609 Goal=   None    Shift=    0.000
 Gap=     0.676 Goal=   None    Shift=    0.000
 RMSDP=3.78D-05 MaxDP=4.97D-04 DE=-4.17D-06 OVMax= 4.65D-04

 Cycle   8  Pass 1  IDiag  1:
 E= -40.6661591739365     Delta-E=       -0.000000661383 Rises=F Damp=F
 DIIS: error= 1.52D-05 at cycle   8 NSaved=   8.
 NSaved= 8 IEnMin= 8 EnMin= -40.6661591739365     IErMin= 8 ErrMin= 1.52D-05
 ErrMax= 1.52D-05 EMaxC= 1.00D-01 BMatC= 2.34D-08 BMatP= 5.67D-07
 IDIUse=1 WtCom= 1.00D+00 WtEn= 0.00D+00
 Coeff-Com: -0.302D-03 0.927D-03 0.123D-01-0.311D-01 0.283D-01 0.125D+00
 Coeff-Com: -0.536D+00 0.140D+01
 Coeff:     -0.302D-03 0.927D-03 0.123D-01-0.311D-01 0.283D-01 0.125D+00
 Coeff:     -0.536D+00 0.140D+01
 Gap=     0.609 Goal=   None    Shift=    0.000
 Gap=     0.676 Goal=   None    Shift=    0.000
 RMSDP=7.08D-06 MaxDP=1.59D-04 DE=-6.61D-07 OVMax= 1.18D-04

 Cycle   9  Pass 1  IDiag  1:
 E= -40.6661591972653     Delta-E=       -0.000000023329 Rises=F Damp=F
 DIIS: error= 2.89D-06 at cycle   9 NSaved=   9.
 NSaved= 9 IEnMin= 9 EnMin= -40.6661591972653     IErMin= 9 ErrMin= 2.89D-06
 ErrMax= 2.89D-06 EMaxC= 1.00D-01 BMatC= 9.94D-10 BMatP= 2.34D-08
 IDIUse=1 WtCom= 1.00D+00 WtEn= 0.00D+00
 Coeff-Com:  0.703D-04-0.218D-03-0.313D-02 0.793D-02-0.107D-01-0.153D-01
 Coeff-Com:  0.114D+00-0.436D+00 0.134D+01
 Coeff:      0.703D-04-0.218D-03-0.313D-02 0.793D-02-0.107D-01-0.153D-01
 Coeff:      0.114D+00-0.436D+00 0.134D+01
 Gap=     0.609 Goal=   None    Shift=    0.000
 Gap=     0.676 Goal=   None    Shift=    0.000
 RMSDP=1.63D-06 MaxDP=4.30D-05 DE=-2.33D-08 OVMax= 2.55D-05

 Cycle  10  Pass 1  IDiag  1:
 E= -40.6661591983056     Delta-E=       -0.000000001040 Rises=F Damp=F
 DIIS: error= 1.44D-06 at cycle  10 NSaved=  10.
 NSaved=10 IEnMin=10 EnMin= -40.6661591983056     IErMin=10 ErrMin= 1.44D-06
 ErrMax= 1.44D-06 EMaxC= 1.00D-01 BMatC= 1.87D-10 BMatP= 9.94D-10
 IDIUse=1 WtCom= 1.00D+00 WtEn= 0.00D+00
 Coeff-Com: -0.403D-04 0.129D-03 0.189D-02-0.464D-02 0.735D-02 0.319D-02
 Coeff-Com: -0.590D-01 0.277D+00-0.117D+01 0.194D+01
 Coeff:     -0.403D-04 0.129D-03 0.189D-02-0.464D-02 0.735D-02 0.319D-02
 Coeff:     -0.590D-01 0.277D+00-0.117D+01 0.194D+01
 Gap=     0.609 Goal=   None    Shift=    0.000
 Gap=     0.676 Goal=   None    Shift=    0.000
 RMSDP=1.04D-06 MaxDP=2.40D-05 DE=-1.04D-09 OVMax= 1.49D-05

 Cycle  11  Pass 1  IDiag  1:
 E= -40.6661591985513     Delta-E=       -0.000000000246 Rises=F Damp=F
 DIIS: error= 7.95D-07 at cycle  11 NSaved=  11.
 NSaved=11 IEnMin=11 EnMin= -40.6661591985513     IErMin=11 ErrMin= 7.95D-07
 ErrMax= 7.95D-07 EMaxC= 1.00D-01 BMatC= 1.69D-11 BMatP= 1.87D-10
 IDIUse=1 WtCom= 1.00D+00 WtEn= 0.00D+00
 Coeff-Com:  0.143D-04-0.483D-04-0.703D-03 0.162D-02-0.270D-02-0.965D-03
 Coeff-Com:  0.225D-01-0.117D+00 0.608D+00-0.129D+01 0.178D+01
 Coeff:      0.143D-04-0.483D-04-0.703D-03 0.162D-02-0.270D-02-0.965D-03
 Coeff:      0.225D-01-0.117D+00 0.608D+00-0.129D+01 0.178D+01
 Gap=     0.609 Goal=   None    Shift=    0.000
 Gap=     0.676 Goal=   None    Shift=    0.000
 RMSDP=2.53D-07 MaxDP=4.37D-06 DE=-2.46D-10 OVMax= 6.38D-06

 Cycle  12  Pass 1  IDiag  1:
 E= -40.6661591985743     Delta-E=       -0.000000000023 Rises=F Damp=F
 DIIS: error= 1.44D-07 at cycle  12 NSaved=  12.
 NSaved=12 IEnMin=12 EnMin= -40.6661591985743     IErMin=12 ErrMin= 1.44D-07
 ErrMax= 1.44D-07 EMaxC= 1.00D-01 BMatC= 1.17D-12 BMatP= 1.69D-11
 IDIUse=1 WtCom= 1.00D+00 WtEn= 0.00D+00
 Coeff-Com: -0.437D-05 0.150D-04 0.224D-03-0.472D-03 0.837D-03 0.186D-03
 Coeff-Com: -0.712D-02 0.397D-01-0.220D+00 0.503D+00-0.909D+00 0.159D+01
 Coeff:     -0.437D-05 0.150D-04 0.224D-03-0.472D-03 0.837D-03 0.186D-03
 Coeff:     -0.712D-02 0.397D-01-0.220D+00 0.503D+00-0.909D+00 0.159D+01
 Gap=     0.609 Goal=   None    Shift=    0.000
 Gap=     0.676 Goal=   None    Shift=    0.000
 RMSDP=4.58D-08 MaxDP=7.89D-07 DE=-2.31D-11 OVMax= 1.17D-06

 Cycle  13  Pass 1  IDiag  1:
 E= -40.6661591985757     Delta-E=       -0.000000000001 Rises=F Damp=F
 DIIS: error= 2.87D-08 at cycle  13 NSaved=  13.
 NSaved=13 IEnMin=13 EnMin= -40.6661591985757     IErMin=13 ErrMin= 2.87D-08
 ErrMax= 2.87D-08 EMaxC= 1.00D-01 BMatC= 4.61D-14 BMatP= 1.17D-12
 IDIUse=1 WtCom= 1.00D+00 WtEn= 0.00D+00
 Coeff-Com:  0.572D-06-0.224D-05-0.321D-04 0.544D-04-0.128D-03 0.104D-03
 Coeff-Com:  0.747D-03-0.576D-02 0.377D-01-0.961D-01 0.186D+00-0.490D+00
 Coeff-Com:  0.137D+01
 Coeff:      0.572D-06-0.224D-05-0.321D-04 0.544D-04-0.128D-03 0.104D-03
 Coeff:      0.747D-03-0.576D-02 0.377D-01-0.961D-01 0.186D+00-0.490D+00
 Coeff:      0.137D+01
 Gap=     0.609 Goal=   None    Shift=    0.000
 Gap=     0.676 Goal=   None    Shift=    0.000
 RMSDP=1.35D-08 MaxDP=1.75D-07 DE=-1.32D-12 OVMax= 3.01D-07

 Cycle  14  Pass 1  IDiag  1:
 E= -40.6661591985756     Delta-E=        0.000000000000 Rises=F Damp=F
 DIIS: error= 6.92D-09 at cycle  14 NSaved=  14.
 NSaved=14 IEnMin=13 EnMin= -40.6661591985757     IErMin=14 ErrMin= 6.92D-09
 ErrMax= 6.92D-09 EMaxC= 1.00D-01 BMatC= 2.76D-15 BMatP= 4.61D-14
 IDIUse=1 WtCom= 1.00D+00 WtEn= 0.00D+00
 Coeff-Com:  0.182D-07 0.113D-06 0.316D-06 0.678D-05 0.129D-05-0.457D-04
 Coeff-Com:  0.885D-04 0.140D-03-0.312D-02 0.128D-01-0.286D-01 0.134D+00
 Coeff-Com: -0.624D+00 0.151D+01
 Coeff:      0.182D-07 0.113D-06 0.316D-06 0.678D-05 0.129D-05-0.457D-04
 Coeff:      0.885D-04 0.140D-03-0.312D-02 0.128D-01-0.286D-01 0.134D+00
 Coeff:     -0.624D+00 0.151D+01
 Gap=     0.609 Goal=   None    Shift=    0.000
 Gap=     0.676 Goal=   None    Shift=    0.000
 RMSDP=3.28D-09 MaxDP=3.78D-08 DE= 4.26D-14 OVMax= 5.73D-08

 SCF Done:  E(UHF) =  -40.6661591986     A.U. after   14 cycles
             Convg  =    0.3276D-08             -V/T =  1.9984
             S**2   =   0.7767
 KE= 4.073304577931D+01 PE=-1.243245507829D+02 EE= 2.772568279564D+01
 Annihilation of the first spin contaminant:
 S**2 before annihilation     0.7767,   after     0.7503
 Leave Link  502 at Wed Apr 17 22:15:46 2013, MaxMem=    6291456 cpu:       0.1
 (Enter /soft/g03/g03/l801.exe)
 ExpMin= 1.61D-01 ExpMax= 3.05D+03 ExpMxC= 4.57D+02 IAcc=1 IRadAn=         1 AccDes= 1.00D-06
 HarFok:  IExCor= 205 AccDes= 1.00D-06 IRadAn=         1 IDoV=1
 ScaDFX=  1.000000  1.000000  1.000000  1.000000
 Largest valence mixing into a core orbital is  1.56D-04
 Largest core mixing into a valence orbital is  2.17D-05
 Largest valence mixing into a core orbital is  2.06D-04
 Largest core mixing into a valence orbital is  3.46D-05
 Range of M.O.s used for correlation:     2    40
 NBasis=    40 NAE=     6 NBE=     5 NFC=     1 NFV=     0
 NROrb=     39 NOA=     5 NOB=     4 NVA=    34 NVB=    35
 Leave Link  801 at Wed Apr 17 22:15:46 2013, MaxMem=    6291456 cpu:       0.0
 (Enter /soft/g03/g03/l906.exe)
 Frozen-core derivative calculation, NFC=   1 NFV=   0.
 FulOut=F Deriv=T AODrv=T NAtomX=     6
   MMem=           0  MDisk=           5 MDiskD=           5
  W3Min=       19200 MinDsk=      102260 NBas6D=          40
 NBas2D=         862    NTT=         820    LW2=     3000000
    MDV=     6280212 MDiskM=        2277 NBas2p=         862
 Disk-based method using ON**2 memory for  5 occupieds at a time.
 Permanent disk used for amplitudes=       50065 words.
 Estimated scratch disk usage=     1096240 words.
 IMap=   1   2   3   4   5   6
 Actual    scratch disk usage=     1096240 words.
 JobTyp=2 Pass  1:  I=   2 to   6 NPSUse=  1 ParTrn=F ParDer=F DoDerP=T.
 (rs|ai) integrals will be sorted in core.
 IMap=   1   2   3   4   5
 Actual    scratch disk usage=     1096240 words.
 JobTyp=3 Pass  1:  I=   2 to   5 NPSUse=  1 ParTrn=F ParDer=F DoDerP=T.
 (rs|ai) integrals will be sorted in core.
 Spin components of T(2) and E(2):
     alpha-alpha T2 =       0.6216723149D-02 E2=     -0.1907207986D-01
     alpha-beta  T2 =       0.4205026472D-01 E2=     -0.1349460900D+00
     beta-beta   T2 =       0.3051446883D-02 E2=     -0.8904506891D-02
 The integrals were generated   2 times.
 (S**2,0)=  0.77669D+00           (S**2,1)=  0.75913D+00
 E(PUHF)=      -0.40671743725D+02        E(PMP2)=      -0.40832843184D+02
 ANorm=    0.1025338205D+01
 E2 =    -0.1629226767D+00 EUMP2 =    -0.40829081875287D+02
 Leave Link  906 at Wed Apr 17 22:15:50 2013, MaxMem=    6291456 cpu:       4.1
 (Enter /soft/g03/g03/l1101.exe)
 Using compressed Sx but separate Hx and Fx, NAtomX=     6.
 Will process   7 centers per pass.
 Leave Link 1101 at Wed Apr 17 22:15:51 2013, MaxMem=    6291456 cpu:       0.1
 (Enter /soft/g03/g03/l1102.exe)
 Use density number 0.
 Leave Link 1102 at Wed Apr 17 22:15:51 2013, MaxMem=    6291456 cpu:       0.0
 (Enter /soft/g03/g03/l1110.exe)
 Forming Gx(P) for the SCF density, NAtomX=     6.
 Integral derivatives from FoFDir, PRISM(SPDF).
 Do as many integral derivatives as possible in FoFDir.
 G2DrvN: MDV=       6291406.
 G2DrvN: will do    7 centers at a time, making    1 passes doing MaxLOS=2.
 Symmetry not used in FoFDir.
 MinBra= 0 MaxBra= 2 Meth= 1.
 IRaf=       0 NMat=   1 IRICut=       1 DoRegI=T DoRafI=F ISym2E= 0 JSym2E=0.
 FoFDir/FoFCou used for L=0 through L=2.
 Leave Link 1110 at Wed Apr 17 22:15:51 2013, MaxMem=    6291456 cpu:       0.2
 (Enter /soft/g03/g03/l1002.exe)
 Minotr:  UHF wavefunction.
 DoAtom=TTTTTT
          Frozen-core window.
          Direct CPHF calculation.
          Solving linear equations simultaneously.
          Differentiating once with respect to electric field.
                with respect to dipole field.
          Differentiating once with respect to nuclear coordinates.
          Requested convergence is 1.0D-08 RMS, and 1.0D-07 maximum.
          Secondary convergence is 1.0D-12 RMS, and 1.0D-12 maximum.
          NewPWx=T KeepS1=T KeepF1=T KeepIn=T MapXYZ=F.
          MDV=       6291400 using IRadAn=       2.
          Store integrals in memory, NReq=     1493710.
 Symmetry not used in FoFDir.
 MinBra= 0 MaxBra= 2 Meth= 1.
 IRaf=       0 NMat=   1 IRICut=       1 DoRegI=T DoRafI=F ISym2E= 0 JSym2E=0.
          There are  21 degrees of freedom in the 1st order CPHF.
    18 vectors were produced by pass  0.
 AX will form  18 AO Fock derivatives at one time.
    18 vectors were produced by pass  1.
    18 vectors were produced by pass  2.
    18 vectors were produced by pass  3.
    18 vectors were produced by pass  4.
    18 vectors were produced by pass  5.
    12 vectors were produced by pass  6.
     4 vectors were produced by pass  7.
     1 vectors were produced by pass  8.
 Inv2:  IOpt= 1 Iter= 1 AM= 2.57D-15 Conv= 1.00D-12.
 Inverted reduced A of dimension  125 with in-core refinement.
 Saving first derivative matrices.
 End of Minotr Frequency-dependent properties file   721 does not exist.
 Leave Link 1002 at Wed Apr 17 22:15:52 2013, MaxMem=    6291456 cpu:       0.3
 (Enter /soft/g03/g03/l811.exe)
 MDV=     6291456.
 Form MO integral derivatives with frozen-active canonical formalism.
 MOERI=1 MOERIx=1 NAtoms=     6 NAtomA=     6 NAtomX=     6.
 Discarding MO integrals.
 MO basis two electron integral derivatives will not be stored on disk.
 IAlg= 3 DoFC=T DoPWx=T Debug=F.
 Frozen-core window:  NFC=   1 NFV=   0.
             Reordered first order wavefunction length =       207461
 In DefCFB: NBatch=  1, ICI=  6, ICA= 35, LFMax= 12
             Large arrays: LIAPS=     2425600, LIARS=     1764000 words.
  In StABat: MaxSiz= 15 MinSiz= 10 NAtomB=  3
 DoIAMN:  NPSUse=  1.
 In DefCFB: NBatch=  1, ICI=  6, ICA= 35, LFMax= 12
             Large arrays: LIAPS=     2425600, LIARS=     1764000 words.
  In StABat: MaxSiz= 15 MinSiz= 10 NAtomB=  3
 Leave Link  811 at Wed Apr 17 22:15:54 2013, MaxMem=    6291456 cpu:       1.8
 (Enter /soft/g03/g03/l804.exe)
 Frozen-core window:  NFC=   1 NFV=   0.
 Open-shell transformation, MDV=     6291456 ITran=4 ISComp=1.
 Compute canonical integrals, LenV=     5604917.
 Symmetry not used in FoFDir.
 MinBra= 0 MaxBra= 2 Meth= 1.
 IRaf=       0 NMat=   1 IRICut=       1 DoRegI=T DoRafI=F ISym2E= 0 JSym2E=0.
 Compute canonical integrals, LenV=     5604917.
 SymMOI:  orbitals are not symmetric.
 Spin components of T(2) and E(2):
     alpha-alpha T2 =       0.6216723149D-02 E2=     -0.1907207986D-01
     alpha-beta  T2 =       0.4205026472D-01 E2=     -0.1349460900D+00
     beta-beta   T2 =       0.3051446883D-02 E2=     -0.8904506891D-02
 ANorm=    0.1450047196D+01
 E2=       -0.1629226767D+00 EUMP2=       -0.40829081875287D+02
 (S**2,0)=  0.77669D+00           (S**2,1)=  0.75913D+00
 E(PUHF)=      -0.40671743725D+02        E(PMP2)=      -0.40832843184D+02
 Leave Link  804 at Wed Apr 17 22:15:54 2013, MaxMem=    6291456 cpu:       0.2
 (Enter /soft/g03/g03/l1002.exe)
 Minotr:  UHF wavefunction.
          Computing MP2 derivatives.
          Using Z-Vector for PSCF gradient.
          Skipping F1 and S1 gradient terms here.
 DoAtom=TTTTTT
          Frozen-core window.
          Using MO integrals in the linear equations.
          Forming densities via direct SCF.
          Solving linear equations simultaneously.
          Differentiating once with respect to electric field.
                with respect to dipole field.
          Differentiating once with respect to nuclear coordinates.
          Requested convergence is 1.0D-10 RMS, and 1.0D-09 maximum.
          Secondary convergence is 1.0D-12 RMS, and 1.0D-12 maximum.
          NewPWx=F KeepS1=T KeepF1=T KeepIn=T MapXYZ=F.
          MDV=       6291400 using IRadAn=       0.
          There are   1 degrees of freedom in the 1st order CPHF.
 Petite list used in FoFDir.
 MinBra= 0 MaxBra= 2 Meth= 1.
 IRaf=       0 NMat=   1 IRICut=       1 DoRegI=T DoRafI=F ISym2E= 1 JSym2E=1.
     1 vectors were produced by pass  0.
     1 vectors were produced by pass  1.
     1 vectors were produced by pass  2.
     1 vectors were produced by pass  3.
     1 vectors were produced by pass  4.
     1 vectors were produced by pass  5.
     1 vectors were produced by pass  6.
     1 vectors were produced by pass  7.
     1 vectors were produced by pass  8.
     1 vectors were produced by pass  9.
     1 vectors were produced by pass 10.
 Inv2:  IOpt= 1 Iter= 1 AM= 3.47D-16 Conv= 1.00D-12.
 Inverted reduced A of dimension   11 with in-core refinement.
 End of Minotr Frequency-dependent properties file   721 does not exist.
 Leave Link 1002 at Wed Apr 17 22:15:54 2013, MaxMem=    6291456 cpu:       0.2
 (Enter /soft/g03/g03/l1102.exe)
 Use density number 2.
 Symmetrizing basis deriv contribution to polar:
 IMax=3 JMax=2 DiffMx= 0.00D+00
 Leave Link 1102 at Wed Apr 17 22:15:54 2013, MaxMem=    6291456 cpu:       0.0
 (Enter /soft/g03/g03/l1110.exe)
 Forming Gx(P) for generalized density number  2 NAtomX=     6.
 Integral derivatives from FoFDir, PRISM(SPDF).
 Do as many integral derivatives as possible in FoFDir.
 G2DrvN: MDV=       6291406.
 G2DrvN: will do    7 centers at a time, making    1 passes doing MaxLOS=2.
 Symmetry not used in FoFDir.
 MinBra= 0 MaxBra= 2 Meth= 1.
 IRaf=       0 NMat=   1 IRICut=       1 DoRegI=T DoRafI=F ISym2E= 0 JSym2E=0.
 FoFDir/FoFCou used for L=0 through L=2.
 Leave Link 1110 at Wed Apr 17 22:15:54 2013, MaxMem=    6291456 cpu:       0.2
 (Enter /soft/g03/g03/l1112.exe)
 MP22nd: MDV=       6291456
 This link is doing NAtomX=     6 total of    21 degrees of freedom.
 Using ON3 I/O method in MakUI.
 Frozen-core window:  NFC=   1 NFV=   0.
 Using Ix for Sx.
 Use MO integrals over full window.
 Using OV2 memory method for fx*t*t/D, MaxI=  6 Force3=T.
 R2 and R3 integrals will be kept in memory, NReq=     1493220.
 Symmetry not used in FoFDir.
 MinBra= 0 MaxBra= 2 Meth= 1.
 IRaf=       0 NMat=   1 IRICut=       1 DoRegI=T DoRafI=F ISym2E= 0 JSym2E=0.
 DD1Dir will call FoFMem   1 times, MxPair=        86
 NAB=    30 NAA=    15 NBB=    10.
 Symmetry is being used.
 Discarding MO integrals.
 Leave Link 1112 at Wed Apr 17 22:15:55 2013, MaxMem=    6291456 cpu:       0.8
 (Enter /soft/g03/g03/l601.exe)
 Copying SCF densities to generalized density rwf, ISCF=1 IROHF=0.

 **********************************************************************

            Population analysis using the SCF density.

 **********************************************************************

 Orbital symmetries:
 Alpha Orbitals:
       Occupied  (A) (A) (A) (A) (A) (A)
       Virtual   (A) (A) (A) (A) (A) (A) (A) (A) (A) (A) (A) (A)
                 (A) (A) (A) (A) (A) (A) (A) (A) (A) (A) (A) (A)
                 (A) (A) (A) (A) (A) (A) (A) (A) (A) (A)
 Beta  Orbitals:
       Occupied  (A) (A) (A) (A) (A)
       Virtual   (A) (A) (A) (A) (A) (A) (A) (A) (A) (A) (A) (A)
                 (A) (A) (A) (A) (A) (A) (A) (A) (A) (A) (A) (A)
                 (A) (A) (A) (A) (A) (A) (A) (A) (A) (A) (A)
 The electronic state is 2-A.
 Alpha  occ. eigenvalues --  -11.23927  -0.96904  -0.62741  -0.57960  -0.57960
 Alpha  occ. eigenvalues --   -0.35576
 Alpha virt. eigenvalues --    0.25355   0.31779   0.31779   0.34741   0.71311
 Alpha virt. eigenvalues --    0.71311   0.75004   0.87793   1.14155   1.14155
 Alpha virt. eigenvalues --    1.17144   1.26385   1.40502   1.63890   1.63890
 Alpha virt. eigenvalues --    2.00754   2.00754   2.10068   2.29593   2.29593
 Alpha virt. eigenvalues --    2.31469   2.67584   2.67584   2.79445   2.93927
 Alpha virt. eigenvalues --    2.99152   2.99153   3.14544   3.14544   3.57829
 Alpha virt. eigenvalues --    3.80776   3.80776   4.39495   4.91303
  Beta  occ. eigenvalues --  -11.21609  -0.89046  -0.56461  -0.56461  -0.55370
  Beta virt. eigenvalues --    0.12216   0.26919   0.32993   0.32993   0.39561
  Beta virt. eigenvalues --    0.72019   0.72019   0.86040   0.92430   1.15410
  Beta virt. eigenvalues --    1.15410   1.19417   1.28010   1.43535   1.68967
  Beta virt. eigenvalues --    1.68967   2.02615   2.02615   2.16141   2.30619
  Beta virt. eigenvalues --    2.30619   2.31075   2.69947   2.69947   2.80466
  Beta virt. eigenvalues --    2.96953   3.00275   3.00275   3.15583   3.15583
  Beta virt. eigenvalues --    3.58664   3.81730   3.81730   4.42146   4.93766
     Alpha Molecular Orbital Coefficients
                           1         2         3         4         5
                        (A)--O    (A)--O    (A)--O    (A)--O    (A)--O
     EIGENVALUES --   -11.23927  -0.96904  -0.62741  -0.57960  -0.57960
   1 1   C  1S          0.99538  -0.20035   0.02658   0.00000   0.00000
   2        2S          0.03004   0.38723  -0.04282   0.00000   0.00000
   3        2PX        -0.00014  -0.01415  -0.22837  -0.18448  -0.13811
   4        2PY        -0.00003  -0.00349  -0.05630  -0.11780   0.42325
   5        2PZ        -0.00008  -0.00769  -0.12419   0.39263   0.06209
   6        3S         -0.01297   0.39973  -0.05996   0.00000   0.00000
   7        3PX         0.00066  -0.00408  -0.12271  -0.08944  -0.06696
   8        3PY         0.00016  -0.00100  -0.03025  -0.05711   0.20519
   9        3PZ         0.00036  -0.00222  -0.06673   0.19035   0.03010
  10        4XX        -0.00214   0.00412   0.01184  -0.00543  -0.00991
  11        4YY        -0.00241  -0.00300  -0.00560  -0.01516   0.01891
  12        4ZZ        -0.00234  -0.00122  -0.00123   0.02059  -0.00901
  13        4XY         0.00008   0.00216   0.00528   0.00936   0.01114
  14        4XZ         0.00018   0.00476   0.01166  -0.00046   0.01019
  15        4YZ         0.00005   0.00117   0.00287  -0.01421  -0.01263
  16 2   H  1S         -0.00002   0.13716  -0.05815  -0.11269   0.24859
  17        2S          0.00236   0.03379  -0.04123  -0.08779   0.19365
  18        3PX        -0.00002  -0.00060  -0.00394  -0.00230  -0.00241
  19        3PY         0.00017  -0.01334   0.00346   0.00608  -0.01116
  20        3PZ        -0.00004   0.00199  -0.00292   0.00417   0.00354
  21 3   H  1S         -0.00002   0.13716  -0.05815  -0.15894  -0.22189
  22        2S          0.00236   0.03379  -0.04123  -0.12382  -0.17285
  23        3PX         0.00008  -0.00856  -0.00127   0.00430   0.00764
  24        3PY        -0.00011   0.00763  -0.00359  -0.00789  -0.00295
  25        3PZ        -0.00011   0.00712  -0.00465  -0.00052  -0.00739
  26 4   H  1S         -0.00002   0.13716  -0.05815   0.27163  -0.02670
  27        2S          0.00236   0.03379  -0.04123   0.21160  -0.02080
  28        3PX        -0.00007   0.00296  -0.00514   0.00187  -0.00233
  29        3PY        -0.00006   0.00418  -0.00243   0.00428   0.00523
  30        3PZ         0.00015  -0.01249   0.00195  -0.01189   0.00255
  31 5   H  1S          0.00018   0.06981   0.26137   0.00000   0.00000
  32        2S          0.00362   0.02098   0.19297   0.00000   0.00000
  33        3PX        -0.00030   0.00743  -0.00503  -0.00150  -0.00112
  34        3PY        -0.00007   0.00183  -0.00124  -0.00096   0.00345
  35        3PZ        -0.00016   0.00404  -0.00274   0.00320   0.00051
  36 6   H  1S         -0.00043   0.03709   0.28239   0.00000   0.00000
  37        2S         -0.00152   0.01673   0.25934   0.00000   0.00000
  38        3PX        -0.00026   0.00379   0.01195  -0.00023  -0.00018
  39        3PY        -0.00007   0.00093   0.00295  -0.00015   0.00054
  40        3PZ        -0.00014   0.00206   0.00650   0.00050   0.00008
                           6         7         8         9        10
                        (A)--O    (A)--V    (A)--V    (A)--V    (A)--V
     EIGENVALUES --    -0.35576   0.25355   0.31779   0.31779   0.34741
   1 1   C  1S          0.04397  -0.14300   0.00000   0.00000   0.04795
   2        2S         -0.09491   0.11363   0.00000   0.00000  -0.05254
   3        2PX         0.44088   0.09750   0.07384   0.13996   0.12766
   4        2PY         0.10869   0.02404  -0.29972   0.03440   0.03147
   5        2PZ         0.23975   0.05302   0.00009  -0.27297   0.06942
   6        3S         -0.27505   2.50441   0.00001   0.00000  -0.71498
   7        3PX         0.38808   0.30481   0.36930   0.69999   0.82434
   8        3PY         0.09568   0.07515  -1.49898   0.17204   0.20322
   9        3PZ         0.21104   0.16576   0.00046  -1.36519   0.44828
  10        4XX        -0.00708  -0.00390  -0.00455  -0.00501   0.02850
  11        4YY         0.00690  -0.01537   0.00892  -0.00448  -0.00724
  12        4ZZ         0.00340  -0.01250  -0.00437   0.00949   0.00170
  13        4XY        -0.00424   0.00348   0.00636   0.00324   0.01083
  14        4XZ        -0.00935   0.00767   0.00323   0.00245   0.02390
  15        4YZ        -0.00230   0.00189  -0.00200  -0.00527   0.00589
  16 2   H  1S          0.03676  -0.02334   0.06245  -0.01718  -0.05981
  17        2S          0.06643  -1.18942   1.89627  -0.52160  -0.07541
  18        3PX         0.00866   0.00373   0.00325   0.00361   0.00169
  19        3PY        -0.00031   0.00211  -0.00751   0.00072   0.00073
  20        3PZ         0.00514   0.00182   0.00054  -0.00781   0.00086
  21 3   H  1S          0.03676  -0.02334  -0.04610  -0.04549  -0.05981
  22        2S          0.06643  -1.18942  -1.39985  -1.38141  -0.07541
  23        3PX         0.00719   0.00445   0.00093   0.00280   0.00188
  24        3PY         0.00358   0.00022  -0.00836   0.00102   0.00023
  25        3PZ         0.00609   0.00136  -0.00021  -0.00788   0.00074
  26 4   H  1S          0.03676  -0.02334  -0.01635   0.06267  -0.05981
  27        2S          0.06643  -1.18942  -0.49642   1.90302  -0.07542
  28        3PX         0.00932   0.00341   0.00181   0.00495   0.00161
  29        3PY         0.00294   0.00053  -0.00844   0.00105   0.00031
  30        3PZ         0.00246   0.00313  -0.00031  -0.00645   0.00120
  31 5   H  1S          0.04866   0.03750   0.00000   0.00000   0.24824
  32        2S          0.06308  -0.25036  -0.00001   0.00000   2.78738
  33        3PX        -0.02549  -0.00054   0.00091   0.00172   0.00120
  34        3PY        -0.00628  -0.00013  -0.00369   0.00042   0.00030
  35        3PZ        -0.01386  -0.00029   0.00000  -0.00336   0.00065
  36 6   H  1S          0.24798   0.03613   0.00000   0.00000   0.02393
  37        2S          0.42729   0.15127   0.00000   0.00000  -2.15113
  38        3PX         0.00210   0.00195   0.00109   0.00206   0.00924
  39        3PY         0.00052   0.00048  -0.00441   0.00051   0.00228
  40        3PZ         0.00114   0.00106   0.00000  -0.00402   0.00502
                          11        12        13        14        15
                        (A)--V    (A)--V    (A)--V    (A)--V    (A)--V
     EIGENVALUES --     0.71311   0.71311   0.75004   0.87793   1.14155
   1 1   C  1S          0.00000   0.00000  -0.02097   0.02379   0.00000
   2        2S          0.00000   0.00000  -0.06546   0.14742   0.00001
   3        2PX         0.34928   0.11180  -0.82069  -0.22726  -0.21278
   4        2PY        -0.04292  -0.69785  -0.20233  -0.05603   0.76338
   5        2PZ        -0.62284   0.11078  -0.44630  -0.12359   0.04521
   6        3S          0.00000   0.00000   0.33962  -0.32779  -0.00001
   7        3PX        -0.73110  -0.23402   1.19139  -0.10751   0.34674
   8        3PY         0.08983   1.46071   0.29372  -0.02650  -1.24398
   9        3PZ         1.30370  -0.23188   0.64789  -0.05846  -0.07367
  10        4XX         0.02799   0.02212   0.04635  -0.01038   0.10641
  11        4YY         0.02167  -0.06390  -0.04411   0.05828  -0.21460
  12        4ZZ        -0.04965   0.04179  -0.02148   0.04110   0.10818
  13        4XY        -0.03304  -0.02620   0.02742  -0.02081  -0.12633
  14        4XZ        -0.01174  -0.02461   0.06048  -0.04590  -0.10038
  15        4YZ         0.04540   0.01628   0.01491  -0.01132   0.09963
  16 2   H  1S          0.04535  -0.48765  -0.21940   0.22302  -0.72947
  17        2S          0.02486  -0.26728  -0.09159   0.07300   1.51671
  18        3PX        -0.01135  -0.00251  -0.00340  -0.00394  -0.03427
  19        3PY        -0.00032   0.04082   0.00114   0.02419  -0.12181
  20        3PZ         0.02030  -0.00616  -0.00220  -0.00657   0.02724
  21 3   H  1S          0.39964   0.28310  -0.21940   0.22302   0.58338
  22        2S          0.21904   0.15517  -0.09159   0.07300  -1.21297
  23        3PX        -0.02108  -0.01057  -0.00221   0.01124   0.08303
  24        3PY         0.00990   0.02851  -0.00201  -0.01581  -0.01806
  25        3PZ         0.02794   0.00202  -0.00297  -0.01636  -0.07171
  26 4   H  1S         -0.44500   0.20455  -0.21940   0.22301   0.14608
  27        2S         -0.24390   0.11211  -0.09159   0.07300  -0.30373
  28        3PX        -0.01471  -0.00201  -0.00394  -0.01073  -0.02476
  29        3PY        -0.00378   0.02485  -0.00149  -0.00922   0.05377
  30        3PZ         0.03581  -0.01081  -0.00002   0.02106   0.03937
  31 5   H  1S          0.00000   0.00000   0.00273   0.49160   0.00000
  32        2S          0.00000   0.00000   0.41810  -0.76673   0.00000
  33        3PX        -0.01685  -0.00539   0.07672  -0.06330  -0.00358
  34        3PY         0.00207   0.03366   0.01891  -0.01561   0.01284
  35        3PZ         0.03004  -0.00534   0.04172  -0.03442   0.00076
  36 6   H  1S          0.00000   0.00000  -0.02612   0.89735   0.00000
  37        2S          0.00001   0.00000   0.09224  -0.57188   0.00000
  38        3PX        -0.01128  -0.00361   0.00120   0.00006   0.00367
  39        3PY         0.00139   0.02253   0.00030   0.00001  -0.01318
  40        3PZ         0.02011  -0.00358   0.00065   0.00003  -0.00078
                          16        17        18        19        20
                        (A)--V    (A)--V    (A)--V    (A)--V    (A)--V
     EIGENVALUES --     1.14155   1.17144   1.26385   1.40502   1.63890
   1 1   C  1S          0.00000   0.05006   0.01471  -0.11836   0.00000
   2        2S          0.00000  -1.24644   0.50903  -1.76909   0.00000
   3        2PX        -0.34686  -0.25192  -0.17898   0.23619   0.01111
   4        2PY        -0.13816  -0.06210  -0.04413   0.05823  -0.03398
   5        2PZ         0.70048  -0.13699  -0.09733   0.12844  -0.00502
   6        3S          0.00001   2.54578  -1.44183   4.69582  -0.00001
   7        3PX         0.56523   0.51162   0.80180  -0.65167  -0.00077
   8        3PY         0.22515   0.12612   0.19767  -0.16066   0.00238
   9        3PZ        -1.14148   0.27822   0.43602  -0.35438   0.00035
  10        4XX         0.08327  -0.12714  -0.12273  -0.11364  -0.22258
  11        4YY         0.13655   0.05176   0.08481  -0.11649   0.03767
  12        4ZZ        -0.21982   0.00701   0.03289  -0.11577   0.18491
  13        4XY        -0.09700  -0.05422  -0.06290   0.00086   0.41789
  14        4XZ        -0.02151  -0.11961  -0.13876   0.00190  -0.13395
  15        4YZ         0.15124  -0.02949  -0.03421   0.00047   0.48806
  16 2   H  1S          0.25247   0.51891   0.10618  -0.39482   0.03340
  17        2S         -0.52495  -1.04777  -0.09232  -0.69758  -0.01872
  18        3PX        -0.02393  -0.00576  -0.03940  -0.02145   0.20013
  19        3PY         0.05289   0.08989  -0.00954  -0.00656   0.02056
  20        3PZ         0.05153  -0.01921  -0.02146  -0.01144   0.20514
  21 3   H  1S          0.50549   0.51892   0.10618  -0.39482  -0.02984
  22        2S         -1.05103  -1.04779  -0.09232  -0.69758   0.01673
  23        3PX         0.05811   0.04933  -0.03930  -0.02222  -0.16974
  24        3PY        -0.08372  -0.05527  -0.00981  -0.00454   0.00418
  25        3PZ        -0.00584  -0.05471  -0.02153  -0.01095  -0.21028
  26 4   H  1S         -0.75797   0.51891   0.10618  -0.39482  -0.00355
  27        2S          1.57598  -1.04778  -0.09232  -0.69759   0.00199
  28        3PX         0.00494  -0.03041  -0.03945  -0.02111  -0.09159
  29        3PY         0.04641  -0.03137  -0.00977  -0.00487   0.16251
  30        3PZ        -0.12469   0.08108  -0.02127  -0.01284   0.03279
  31 5   H  1S          0.00000  -0.05397  -1.13365  -0.15402   0.00000
  32        2S          0.00000   0.37276   3.44167  -1.87455   0.00001
  33        3PX        -0.00584  -0.00910  -0.18017  -0.11894   0.06383
  34        3PY        -0.00232  -0.00224  -0.04442  -0.02932  -0.19530
  35        3PZ         0.01178  -0.00495  -0.09798  -0.06468  -0.02884
  36 6   H  1S          0.00000  -0.33583   0.43919   0.51866   0.00000
  37        2S          0.00000   0.10113  -1.97928   0.40268   0.00000
  38        3PX         0.00599   0.01618  -0.15888  -0.11031   0.02418
  39        3PY         0.00239   0.00399  -0.03917  -0.02720  -0.07397
  40        3PZ        -0.01210   0.00880  -0.08640  -0.05999  -0.01092
                          21        22        23        24        25
                        (A)--V    (A)--V    (A)--V    (A)--V    (A)--V
     EIGENVALUES --     1.63890   2.00754   2.00754   2.10068   2.29593
   1 1   C  1S          0.00000   0.00000   0.00000  -0.06113   0.00000
   2        2S          0.00000   0.00000  -0.00001   0.02543   0.00000
   3        2PX         0.01481  -0.03542  -0.03586  -0.08785   0.00601
   4        2PY         0.00950   0.08821  -0.03813  -0.02166  -0.08300
   5        2PZ        -0.03153   0.02514   0.08324  -0.04778   0.02657
   6        3S          0.00000   0.00002   0.00004   0.64055   0.00000
   7        3PX        -0.00103   0.06987   0.07074   0.22457  -0.04815
   8        3PY        -0.00066  -0.17401   0.07521   0.05537   0.66466
   9        3PZ         0.00221  -0.04960  -0.16420   0.12213  -0.21279
  10        4XX        -0.38556  -0.10470  -0.09339  -0.54154  -0.13252
  11        4YY         0.10237   0.08361  -0.05583   0.20656   0.52313
  12        4ZZ         0.28319   0.02109   0.14922   0.01941  -0.39061
  13        4XY        -0.33585   0.13306  -0.05014  -0.22675   0.15535
  14        4XZ         0.41494   0.02713   0.08448  -0.50016   0.17512
  15        4YZ         0.20742   0.04739  -0.02373  -0.12330  -0.06478
  16 2   H  1S         -0.01518  -0.06360   0.04005  -0.29526  -0.55629
  17        2S          0.00851   0.13225  -0.08331  -0.03121  -0.08238
  18        3PX        -0.19434   0.16985  -0.06329  -0.12662   0.14042
  19        3PY         0.02165  -0.03223   0.00720  -0.10726  -0.26893
  20        3PZ         0.08281   0.05923  -0.11174  -0.05547   0.16572
  21 3   H  1S         -0.02133   0.06649   0.03504  -0.29527   0.23837
  22        2S          0.01196  -0.13827  -0.07288  -0.03121   0.03530
  23        3PX        -0.15708  -0.12235  -0.05157  -0.17250  -0.03816
  24        3PY        -0.17294  -0.10397   0.00876   0.01363  -0.35150
  25        3PZ        -0.00481  -0.10108  -0.10585  -0.02589   0.10011
  26 4   H  1S          0.03651  -0.00290  -0.07511  -0.29526   0.31792
  27        2S         -0.02047   0.00602   0.15618  -0.03121   0.04708
  28        3PX         0.26984   0.03314   0.19651  -0.10610  -0.03129
  29        3PY         0.09898  -0.06464   0.07084  -0.00627  -0.35924
  30        3PZ         0.09572  -0.01540   0.02807  -0.13899   0.04781
  31 5   H  1S          0.00000   0.00000   0.00001   0.29330   0.00000
  32        2S          0.00001  -0.00002  -0.00003  -0.38044   0.00000
  33        3PX         0.08508  -0.19655  -0.19902  -0.23998   0.00665
  34        3PY         0.05456   0.48948  -0.21156  -0.05917  -0.09184
  35        3PZ        -0.18119   0.13952   0.46187  -0.13051   0.02940
  36 6   H  1S          0.00000   0.00000   0.00000  -0.41332   0.00000
  37        2S         -0.00001   0.00001   0.00002   0.42919   0.00000
  38        3PX         0.03223  -0.22405  -0.22687   0.20393   0.01595
  39        3PY         0.02067   0.55797  -0.24116   0.05027  -0.22026
  40        3PZ        -0.06863   0.15904   0.52650   0.11089   0.07051
                          26        27        28        29        30
                        (A)--V    (A)--V    (A)--V    (A)--V    (A)--V
     EIGENVALUES --     2.29593   2.31469   2.67584   2.67584   2.79445
   1 1   C  1S          0.00000   0.00000   0.00000   0.00000  -0.01070
   2        2S          0.00000   0.00000   0.00000   0.00000  -0.19893
   3        2PX         0.04438   0.00000  -0.03115  -0.06830  -0.08665
   4        2PY        -0.02001   0.00000   0.14289  -0.00812  -0.02136
   5        2PZ        -0.07254   0.00000  -0.00749   0.12928  -0.04712
   6        3S          0.00000   0.00000   0.00000   0.00000   0.32545
   7        3PX        -0.35538   0.00000  -0.01178  -0.02583  -0.47231
   8        3PY         0.16022   0.00001   0.05403  -0.00307  -0.11644
   9        3PZ         0.58087   0.00000  -0.00283   0.04888  -0.25684
  10        4XX        -0.24480   0.00000   0.20367   0.35452  -0.26605
  11        4YY        -0.08036   0.00001  -0.32881   0.09663   0.15909
  12        4ZZ         0.32516   0.00000   0.12515  -0.45115   0.05274
  13        4XY         0.29127   0.00000  -0.40863  -0.03195  -0.12886
  14        4XZ         0.12322   0.00000  -0.02130  -0.24302  -0.28423
  15        4YZ        -0.37430   0.00000  -0.11259   0.06703  -0.07007
  16 2   H  1S         -0.04593  -0.00001   0.17206  -0.03683  -0.07757
  17        2S         -0.00680   0.00000  -0.20489   0.04386   0.06736
  18        3PX         0.19856   0.29061   0.53829   0.00346   0.52100
  19        3PY        -0.07825  -0.08712   0.18855  -0.07595  -0.07791
  20        3PZ        -0.30471  -0.49490   0.22597  -0.25051   0.31964
  21 3   H  1S          0.50473   0.00001  -0.11793  -0.13059  -0.07757
  22        2S          0.07474   0.00000   0.14043   0.15551   0.06736
  23        3PX         0.05404  -0.08981  -0.40749  -0.39773   0.39649
  24        3PY        -0.08074  -0.44195  -0.18991   0.05306   0.25015
  25        3PZ        -0.33679   0.36550  -0.05647  -0.28034   0.39988
  26 4   H  1S         -0.45880   0.00000  -0.05413   0.16742  -0.07757
  27        2S         -0.06794   0.00000   0.06446  -0.19937   0.06736
  28        3PX         0.27121  -0.20080  -0.07952   0.50667   0.57668
  29        3PY        -0.07716   0.52905  -0.23379   0.03624   0.19613
  30        3PZ        -0.21466   0.12940  -0.15717   0.31811   0.09301
  31 5   H  1S          0.00000   0.00000   0.00000   0.00000   0.04968
  32        2S          0.00000   0.00000   0.00000  -0.00001  -0.48156
  33        3PX         0.04911   0.00000  -0.07217  -0.15823  -0.01845
  34        3PY        -0.02214   0.00000   0.33101  -0.01880  -0.00455
  35        3PZ        -0.08027   0.00000  -0.01735   0.29948  -0.01003
  36 6   H  1S          0.00000   0.00000   0.00000   0.00000   0.03440
  37        2S          0.00000   0.00000   0.00000   0.00000   0.11626
  38        3PX         0.11777   0.00000   0.09626   0.21103  -0.09105
  39        3PY        -0.05309   0.00000  -0.44148   0.02508  -0.02245
  40        3PZ        -0.19249   0.00000   0.02314  -0.39943  -0.04951
                          31        32        33        34        35
                        (A)--V    (A)--V    (A)--V    (A)--V    (A)--V
     EIGENVALUES --     2.93927   2.99152   2.99153   3.14544   3.14544
   1 1   C  1S         -0.06092   0.00000   0.00000   0.00000   0.00000
   2        2S         -0.13068   0.00000  -0.00001   0.00000   0.00000
   3        2PX        -0.00861   0.01330   0.01447   0.11686   0.00309
   4        2PY        -0.00212  -0.03490   0.01362  -0.08631   0.20548
   5        2PZ        -0.00468  -0.00863  -0.03278  -0.17577  -0.09884
   6        3S          1.19140   0.00003   0.00008  -0.00001   0.00000
   7        3PX        -0.47831   0.16384   0.17826   0.19556   0.00518
   8        3PY        -0.11792  -0.43006   0.16780  -0.14443   0.34384
   9        3PZ        -0.26007  -0.10635  -0.40395  -0.29413  -0.16540
  10        4XX         0.20235  -0.18515  -0.15561   0.35931   0.09880
  11        4YY        -0.17738   0.18987  -0.14199  -0.10465  -0.22077
  12        4ZZ        -0.08241  -0.00472   0.29760  -0.25466   0.12197
  13        4XY         0.11509   0.23927  -0.03237   0.11348   0.51231
  14        4XZ         0.25386   0.07396   0.11585  -0.19560  -0.42568
  15        4YZ         0.06259   0.01370  -0.08196  -0.61092   0.26151
  16 2   H  1S         -0.02233  -0.01423   0.00826   0.00428  -0.01724
  17        2S         -0.18463   0.29396  -0.17075   0.08647  -0.34805
  18        3PX         0.14299  -0.27961  -0.04064  -0.25518  -0.41024
  19        3PY         0.16536  -0.04720   0.08830   0.04098   0.26590
  20        3PZ         0.05483   0.05074   0.31633   0.63098  -0.09192
  21 3   H  1S         -0.02233   0.01427   0.00819  -0.01707   0.00491
  22        2S         -0.18462  -0.29485  -0.16922  -0.34465   0.09914
  23        3PX         0.22148   0.23502   0.07233  -0.16106  -0.06511
  24        3PY        -0.04148   0.16460  -0.21341  -0.41315  -0.42957
  25        3PZ         0.00424  -0.02050   0.24285  -0.23519   0.52121
  26 4   H  1S         -0.02233  -0.00004  -0.01646   0.01279   0.01233
  27        2S         -0.18466   0.00088   0.33994   0.25819   0.24891
  28        3PX         0.10789  -0.12187  -0.21280   0.14046   0.46805
  29        3PY        -0.00743   0.31954  -0.04537   0.57585  -0.32123
  30        3PZ         0.19776   0.07780  -0.14878   0.01901  -0.19603
  31 5   H  1S         -0.50004  -0.00001  -0.00003   0.00000   0.00000
  32        2S         -0.99474  -0.00002  -0.00007   0.00001   0.00000
  33        3PX        -0.39232  -0.27624  -0.30059   0.07607   0.00201
  34        3PY        -0.09672   0.72500  -0.28291  -0.05618   0.13375
  35        3PZ        -0.21340   0.17927   0.68094  -0.11441  -0.06434
  36 6   H  1S         -0.09158   0.00000   0.00000   0.00000   0.00000
  37        2S          0.67045   0.00001   0.00004   0.00000   0.00000
  38        3PX         0.62308   0.22409   0.24386  -0.06763  -0.00179
  39        3PY         0.15361  -0.58811   0.22950   0.04995  -0.11891
  40        3PZ         0.33889  -0.14542  -0.55236   0.10172   0.05720
                          36        37        38        39        40
                        (A)--V    (A)--V    (A)--V    (A)--V    (A)--V
     EIGENVALUES --     3.57829   3.80776   3.80776   4.39495   4.91303
   1 1   C  1S         -0.13360   0.00000   0.00000   0.19028  -0.43940
   2        2S          1.07126  -0.00001   0.00000  -0.99406   2.57586
   3        2PX         0.21913  -0.10186  -0.49422   0.17351  -0.02007
   4        2PY         0.05402   0.94846   0.16080   0.04278  -0.00495
   5        2PZ         0.11916  -0.24268   0.83591   0.09436  -0.01091
   6        3S          0.89520   0.00000   0.00000  -0.75752   2.07031
   7        3PX         0.17452  -0.04837  -0.23468   0.17199  -0.15590
   8        3PY         0.04303   0.45038   0.07636   0.04240  -0.03844
   9        3PZ         0.09491  -0.11523   0.39693   0.09353  -0.08478
  10        4XX        -0.53427  -0.29381  -0.41227   0.48052  -1.77498
  11        4YY         0.13601   1.03674  -0.24717   1.03995  -1.90569
  12        4ZZ        -0.03167  -0.74294   0.65945   0.90001  -1.87300
  13        4XY        -0.20316   0.28123   0.57811  -0.16956   0.03962
  14        4XZ        -0.44812   0.40705   0.17995  -0.37402   0.08739
  15        4YZ        -0.11048  -0.22818  -0.79269  -0.09221   0.02155
  16 2   H  1S         -0.36449  -0.82472  -0.01137  -0.24782   0.23429
  17        2S         -0.34795  -0.44372  -0.00612   0.10296  -0.35336
  18        3PX         0.07589   0.10059  -0.08061   0.01304  -0.01583
  19        3PY         0.73059   1.11941   0.04001   0.27903  -0.27286
  20        3PZ        -0.08404  -0.14062   0.13770  -0.04146   0.03873
  21 3   H  1S         -0.36449   0.40252   0.71991  -0.24782   0.23429
  22        2S         -0.34794   0.21656   0.38733   0.10296  -0.35336
  23        3PX         0.50542  -0.34897  -0.67605   0.17947  -0.17812
  24        3PY        -0.40113   0.41212   0.48159  -0.15945   0.15472
  25        3PZ        -0.36085   0.18555   0.54315  -0.14870   0.14332
  26 4   H  1S         -0.36448   0.42221  -0.70855  -0.24782   0.23429
  27        2S         -0.34794   0.22716  -0.38121   0.10296  -0.35336
  28        3PX        -0.11622   0.05172  -0.19747  -0.06139   0.05675
  29        3PY        -0.21479   0.29958  -0.21116  -0.08725   0.08432
  30        3PZ         0.69780  -0.51343   0.93296   0.26146  -0.25666
  31 5   H  1S          0.26905   0.00000   0.00000  -0.86042  -0.44554
  32        2S          0.19202   0.00000   0.00000   0.29393  -0.71774
  33        3PX        -0.12133   0.00776   0.03767   1.15076   0.60537
  34        3PY        -0.02991  -0.07229  -0.01226   0.28370   0.14925
  35        3PZ        -0.06599   0.01850  -0.06371   0.62581   0.32921
  36 6   H  1S         -0.17482   0.00000   0.00000   0.92587   0.54080
  37        2S         -0.14457   0.00000   0.00000  -0.04252   0.32166
  38        3PX        -0.30853  -0.00226  -0.01096   0.99779   0.52735
  39        3PY        -0.07606   0.02104   0.00357   0.24599   0.13001
  40        3PZ        -0.16778  -0.00538   0.01854   0.54262   0.28679
     Beta Molecular Orbital Coefficients.
                           1         2         3         4         5
                        (A)--O    (A)--O    (A)--O    (A)--O    (A)--O
     EIGENVALUES --   -11.21609  -0.89046  -0.56461  -0.56461  -0.55370
   1 1   C  1S          0.99616  -0.18720   0.00000   0.00000   0.03155
   2        2S          0.02584   0.34698   0.00000   0.00000  -0.06442
   3        2PX         0.00022   0.04841  -0.17210  -0.12965  -0.11020
   4        2PY         0.00005   0.01194  -0.11133   0.39541  -0.02717
   5        2PZ         0.00012   0.02633   0.36695   0.05916  -0.05991
   6        3S         -0.01339   0.32310   0.00000   0.00000  -0.12199
   7        3PX         0.00076  -0.00211  -0.07868  -0.05927  -0.02678
   8        3PY         0.00019  -0.00052  -0.05090   0.18077  -0.00660
   9        3PZ         0.00042  -0.00114   0.16775   0.02705  -0.01456
  10        4XX        -0.00190  -0.01344  -0.00956  -0.01311   0.01117
  11        4YY        -0.00068   0.00877  -0.01602   0.02137  -0.00488
  12        4ZZ        -0.00098   0.00321   0.02558  -0.00826  -0.00086
  13        4XY        -0.00037  -0.00673   0.00729   0.01629   0.00487
  14        4XZ        -0.00082  -0.01485   0.00327   0.01012   0.01073
  15        4YZ        -0.00020  -0.00366  -0.01390  -0.00962   0.00265
  16 2   H  1S         -0.00015   0.15950  -0.12063   0.26400  -0.05449
  17        2S          0.00239   0.06860  -0.10316   0.22576  -0.04312
  18        3PX         0.00000  -0.00085  -0.00169  -0.00437  -0.00226
  19        3PY         0.00027  -0.01326   0.00606  -0.01084   0.00326
  20        3PZ        -0.00005   0.00184   0.00510   0.00261  -0.00190
  21 3   H  1S         -0.00015   0.15950  -0.16831  -0.23647  -0.05449
  22        2S          0.00239   0.06860  -0.14394  -0.20222  -0.04313
  23        3PX         0.00016  -0.00873   0.00510   0.00896   0.00004
  24        3PY        -0.00016   0.00749  -0.00765  -0.00194  -0.00281
  25        3PZ        -0.00016   0.00691   0.00068  -0.00632  -0.00338
  26 4   H  1S         -0.00015   0.15950   0.28895  -0.02753  -0.05448
  27        2S          0.00239   0.06860   0.24710  -0.02354  -0.04311
  28        3PX        -0.00008   0.00267  -0.00037  -0.00230  -0.00329
  29        3PY        -0.00009   0.00407   0.00356   0.00580  -0.00181
  30        3PZ         0.00025  -0.01250  -0.01226   0.00267   0.00229
  31 5   H  1S          0.00019   0.07412  -0.00001   0.00000   0.33171
  32        2S          0.00387   0.02130  -0.00001   0.00000   0.43221
  33        3PX        -0.00018   0.00260  -0.00131  -0.00099  -0.00681
  34        3PY        -0.00004   0.00064  -0.00085   0.00301  -0.00168
  35        3PZ        -0.00010   0.00141   0.00279   0.00045  -0.00370
  36 6   H  1S         -0.00031   0.03798  -0.00001   0.00000   0.24475
  37        2S         -0.00159   0.02674   0.00000   0.00000   0.14741
  38        3PX        -0.00021   0.00437  -0.00036  -0.00027   0.01723
  39        3PY        -0.00005   0.00108  -0.00023   0.00082   0.00425
  40        3PZ        -0.00011   0.00238   0.00076   0.00012   0.00937
                           6         7         8         9        10
                        (A)--V    (A)--V    (A)--V    (A)--V    (A)--V
     EIGENVALUES --     0.12216   0.26919   0.32993   0.32993   0.39561
   1 1   C  1S          0.05454  -0.14813   0.00000   0.00000   0.04701
   2        2S         -0.07062   0.09901   0.00000   0.00000  -0.02288
   3        2PX         0.29409   0.10966   0.06988   0.13879   0.11687
   4        2PY         0.07250   0.02704  -0.29489   0.02817   0.02881
   5        2PZ         0.15993   0.05964   0.00519  -0.26798   0.06355
   6        3S         -0.38818   2.57792   0.00000   0.00000  -0.71428
   7        3PX         0.45349   0.30195   0.36485   0.72467   0.99731
   8        3PY         0.11180   0.07444  -1.53976   0.14707   0.24587
   9        3PZ         0.24661   0.16420   0.02712  -1.39927   0.54235
  10        4XX         0.00333  -0.01607   0.00088   0.00423   0.02309
  11        4YY        -0.00284  -0.00774   0.00196  -0.00246  -0.00743
  12        4ZZ        -0.00130  -0.00983  -0.00284  -0.00177   0.00020
  13        4XY         0.00187  -0.00252  -0.00461   0.00419   0.00925
  14        4XZ         0.00412  -0.00557   0.00346  -0.00442   0.02041
  15        4YZ         0.00102  -0.00137  -0.00627  -0.00510   0.00503
  16 2   H  1S          0.02104  -0.00571   0.04818  -0.01227  -0.05554
  17        2S          0.13738  -1.19948   1.92281  -0.48971  -0.08958
  18        3PX         0.01083   0.00429   0.00206   0.00481   0.00397
  19        3PY         0.00036   0.00158  -0.00752   0.00032   0.00088
  20        3PZ         0.00630   0.00224  -0.00046  -0.00898   0.00218
  21 3   H  1S          0.02104  -0.00571  -0.03471  -0.03559  -0.05554
  22        2S          0.13738  -1.19948  -1.38551  -1.42035  -0.08959
  23        3PX         0.00944   0.00461   0.00148   0.00381   0.00391
  24        3PY         0.00403   0.00075  -0.00889   0.00216   0.00104
  25        3PZ         0.00719   0.00204   0.00137  -0.00792   0.00221
  26 4   H  1S          0.02104  -0.00571  -0.01346   0.04786  -0.05554
  27        2S          0.13739  -1.19948  -0.53731   1.91006  -0.08959
  28        3PX         0.01145   0.00415   0.00267   0.00371   0.00399
  29        3PY         0.00343   0.00089  -0.00979   0.00003   0.00101
  30        3PZ         0.00376   0.00282  -0.00045  -0.00692   0.00206
  31 5   H  1S         -0.02613   0.03526   0.00000   0.00000   0.23658
  32        2S         -0.23548  -0.34035   0.00000   0.00000   2.75264
  33        3PX        -0.01189  -0.00314   0.00082   0.00163  -0.00142
  34        3PY        -0.00293  -0.00077  -0.00347   0.00033  -0.00035
  35        3PZ        -0.00647  -0.00171   0.00006  -0.00315  -0.00077
  36 6   H  1S          0.16644   0.04199   0.00000   0.00000   0.06109
  37        2S          0.71199   0.24314   0.00000   0.00000  -2.13114
  38        3PX         0.00428   0.00293   0.00119   0.00236   0.00071
  39        3PY         0.00105   0.00072  -0.00500   0.00048   0.00017
  40        3PZ         0.00233   0.00159   0.00009  -0.00455   0.00039
                          11        12        13        14        15
                        (A)--V    (A)--V    (A)--V    (A)--V    (A)--V
     EIGENVALUES --     0.72019   0.72019   0.86040   0.92430   1.15410
   1 1   C  1S          0.00000   0.00000  -0.05037  -0.01595   0.00000
   2        2S          0.00000   0.00000  -0.16790  -0.02834   0.00001
   3        2PX         0.33932   0.12003  -0.79150   0.44526  -0.22519
   4        2PY        -0.02141  -0.68585  -0.19513   0.10977   0.78246
   5        2PZ        -0.61427   0.09021  -0.43042   0.24214   0.05937
   6        3S          0.00000   0.00000   0.78414  -0.04701  -0.00001
   7        3PX        -0.70651  -0.24991   1.02437  -0.04930   0.35559
   8        3PY         0.04458   1.42801   0.25254  -0.01216  -1.23557
   9        3PZ         1.27899  -0.18783   0.55706  -0.02682  -0.09376
  10        4XX         0.02667   0.02286   0.03010  -0.01416   0.09610
  11        4YY         0.02383  -0.06339  -0.04851  -0.04287  -0.20267
  12        4ZZ        -0.05050   0.04053  -0.02885  -0.03569   0.10656
  13        4XY        -0.03265  -0.02645   0.02383   0.00870  -0.10570
  14        4XZ        -0.01044  -0.02544   0.05256   0.01920  -0.10329
  15        4YZ         0.04558   0.01835   0.01296   0.00473   0.11680
  16 2   H  1S          0.06221  -0.50344  -0.29421  -0.16497  -0.71663
  17        2S          0.02751  -0.22261  -0.16007  -0.03249   1.48818
  18        3PX        -0.01210  -0.00240  -0.00657   0.00312  -0.02997
  19        3PY        -0.00128   0.04045  -0.00559  -0.02889  -0.12477
  20        3PZ         0.02173  -0.00499  -0.00287   0.00692   0.03358
  21 3   H  1S          0.40488   0.30559  -0.29421  -0.16498   0.58563
  22        2S          0.17903   0.13513  -0.16007  -0.03249  -1.21614
  23        3PX        -0.02109  -0.01115  -0.00896  -0.01477   0.08273
  24        3PY         0.00797   0.02947   0.00072   0.01827  -0.02097
  25        3PZ         0.02798   0.00173  -0.00133   0.01845  -0.07879
  26 4   H  1S         -0.46709   0.19784  -0.29421  -0.16497   0.13100
  27        2S         -0.20654   0.08748  -0.16007  -0.03249  -0.27203
  28        3PX        -0.01421  -0.00322  -0.00550   0.01113  -0.02761
  29        3PY        -0.00370   0.02590  -0.00032   0.01050   0.05837
  30        3PZ         0.03610  -0.00934  -0.00723  -0.02566   0.03858
  31 5   H  1S          0.00000   0.00000  -0.12346  -0.61230   0.00000
  32        2S          0.00000   0.00000   0.33928   1.19782   0.00000
  33        3PX        -0.01774  -0.00627   0.09293   0.02040  -0.00223
  34        3PY         0.00112   0.03586   0.02291   0.00503   0.00775
  35        3PZ         0.03211  -0.00472   0.05054   0.01110   0.00059
  36 6   H  1S          0.00000   0.00000  -0.25940  -0.78113   0.00000
  37        2S          0.00001   0.00000   0.33109   0.13657   0.00000
  38        3PX        -0.01093  -0.00387   0.00122  -0.01874   0.00374
  39        3PY         0.00069   0.02209   0.00030  -0.00462  -0.01299
  40        3PZ         0.01978  -0.00291   0.00067  -0.01019  -0.00099
                          16        17        18        19        20
                        (A)--V    (A)--V    (A)--V    (A)--V    (A)--V
     EIGENVALUES --     1.15410   1.19417   1.28010   1.43535   1.68967
   1 1   C  1S          0.00000   0.05960   0.01695  -0.11501   0.00000
   2        2S          0.00000  -1.18910   0.60607  -1.76998   0.00000
   3        2PX        -0.35277  -0.25281  -0.23326   0.27637   0.02047
   4        2PY        -0.15612  -0.06232  -0.05751   0.06813  -0.06564
   5        2PZ         0.71948  -0.13747  -0.12685   0.15029  -0.00789
   6        3S          0.00001   2.30162  -1.67004   4.68127  -0.00001
   7        3PX         0.55706   0.55778   0.78066  -0.66596  -0.00590
   8        3PY         0.24653   0.13751   0.19246  -0.16418   0.01894
   9        3PZ        -1.13613   0.30332   0.42452  -0.36215   0.00228
  10        4XX         0.06244  -0.11466  -0.09828  -0.12439  -0.19865
  11        4YY         0.13900   0.04355   0.08898  -0.12229   0.02462
  12        4ZZ        -0.20144   0.00397   0.04214  -0.12282   0.17403
  13        4XY        -0.10293  -0.04795  -0.05676  -0.00064   0.40546
  14        4XZ        -0.00311  -0.10577  -0.12520  -0.00140  -0.14459
  15        4YZ         0.15316  -0.02608  -0.03087  -0.00035   0.46830
  16 2   H  1S          0.26248   0.53382   0.10051  -0.36861   0.07062
  17        2S         -0.54508  -1.01980  -0.01229  -0.70708  -0.05211
  18        3PX        -0.02764  -0.00747  -0.03952  -0.02123   0.21204
  19        3PY         0.05728   0.09248  -0.01053  -0.00525   0.03077
  20        3PZ         0.05346  -0.02066  -0.02135  -0.01154   0.20854
  21 3   H  1S          0.48938   0.53383   0.10051  -0.36861  -0.06102
  22        2S         -1.01626  -1.01981  -0.01229  -0.70707   0.04503
  23        3PX         0.05453   0.04945  -0.04000  -0.02124  -0.17571
  24        3PY        -0.08938  -0.05747  -0.00928  -0.00523   0.01569
  25        3PZ        -0.00642  -0.05734  -0.02104  -0.01154  -0.21316
  26 4   H  1S         -0.75186   0.53382   0.10052  -0.36861  -0.00960
  27        2S          1.56134  -1.01980  -0.01228  -0.70708   0.00709
  28        3PX         0.01250  -0.03292  -0.03931  -0.02123  -0.10310
  29        3PY         0.04954  -0.03278  -0.00948  -0.00523   0.16766
  30        3PZ        -0.12739   0.08293  -0.02222  -0.01156   0.03034
  31 5   H  1S          0.00000  -0.15165  -1.05551  -0.15655   0.00000
  32        2S          0.00000   0.66540   3.30132  -1.83965   0.00001
  33        3PX        -0.00349  -0.01299  -0.17803  -0.13399   0.06881
  34        3PY        -0.00155  -0.00320  -0.04389  -0.03303  -0.22064
  35        3PZ         0.00712  -0.00707  -0.09682  -0.07287  -0.02650
  36 6   H  1S          0.00000  -0.33375   0.57268   0.54536   0.00000
  37        2S          0.00000  -0.04561  -1.98992   0.37172   0.00000
  38        3PX         0.00586   0.00448  -0.15358  -0.10779   0.02784
  39        3PY         0.00259   0.00111  -0.03786  -0.02657  -0.08927
  40        3PZ        -0.01194   0.00244  -0.08352  -0.05862  -0.01072
                          21        22        23        24        25
                        (A)--V    (A)--V    (A)--V    (A)--V    (A)--V
     EIGENVALUES --     1.68967   2.02615   2.02615   2.16141   2.30619
   1 1   C  1S          0.00000   0.00000   0.00000  -0.05292   0.00000
   2        2S          0.00000   0.00000  -0.00001  -0.01150   0.00000
   3        2PX         0.02898  -0.03382  -0.03432  -0.07842   0.00786
   4        2PY         0.01633   0.08436  -0.03635  -0.01933  -0.09336
   5        2PZ        -0.06069   0.02395   0.07959  -0.04265   0.02787
   6        3S         -0.00001   0.00002   0.00004   0.62915   0.00000
   7        3PX        -0.00836   0.06995   0.07098   0.23356  -0.05723
   8        3PY        -0.00471  -0.17449   0.07519   0.05758   0.67976
   9        3PZ         0.01751  -0.04954  -0.16463   0.12701  -0.20293
  10        4XX        -0.37365  -0.11068  -0.10182  -0.53404  -0.13492
  11        4YY         0.10591   0.08412  -0.05259   0.20134   0.50905
  12        4ZZ         0.26774   0.02656   0.15441   0.01738  -0.37413
  13        4XY        -0.31524   0.14145  -0.05975  -0.22289   0.15955
  14        4XZ         0.39470   0.02470   0.09496  -0.49165   0.17297
  15        4YZ         0.21910   0.06045  -0.01971  -0.12121  -0.07076
  16 2   H  1S         -0.02969  -0.05627   0.03535  -0.26685  -0.54094
  17        2S          0.02191   0.12828  -0.08062  -0.04476  -0.09643
  18        3PX        -0.19600   0.18980  -0.07635  -0.13930   0.15624
  19        3PY         0.01910  -0.03110   0.00667  -0.10835  -0.27172
  20        3PZ         0.09432   0.07162  -0.11810  -0.06272   0.16593
  21 3   H  1S         -0.04631   0.05875   0.03104  -0.26685   0.24255
  22        2S          0.03418  -0.13395  -0.07079  -0.04476   0.04323
  23        3PX        -0.17159  -0.14083  -0.06172  -0.18396  -0.04167
  24        3PY        -0.17618  -0.11117   0.00376   0.00931  -0.35892
  25        3PZ        -0.00624  -0.11515  -0.11255  -0.03394   0.09136
  26 4   H  1S          0.07600  -0.00249  -0.06641  -0.26684   0.29840
  27        2S         -0.05609   0.00567   0.15140  -0.04476   0.05319
  28        3PX         0.27306   0.03343   0.22169  -0.11933  -0.03058
  29        3PY         0.10382  -0.06328   0.07814  -0.01007  -0.36697
  30        3PZ         0.10989  -0.01482   0.03673  -0.14401   0.04053
  31 5   H  1S          0.00000   0.00000   0.00001   0.26818   0.00000
  32        2S          0.00002  -0.00001  -0.00003  -0.32763   0.00000
  33        3PX         0.09741  -0.20318  -0.20618  -0.25287   0.00950
  34        3PY         0.05488   0.50679  -0.21839  -0.06234  -0.11286
  35        3PZ        -0.20401   0.14387   0.47814  -0.13752   0.03369
  36 6   H  1S          0.00000   0.00000   0.00000  -0.42543   0.00000
  37        2S         -0.00001   0.00001   0.00001   0.40668   0.00000
  38        3PX         0.03941  -0.21104  -0.21415   0.20633   0.01867
  39        3PY         0.02220   0.52638  -0.22684   0.05087  -0.22182
  40        3PZ        -0.08254   0.14943   0.49662   0.11220   0.06622
                          26        27        28        29        30
                        (A)--V    (A)--V    (A)--V    (A)--V    (A)--V
     EIGENVALUES --     2.30619   2.31075   2.69947   2.69947   2.80466
   1 1   C  1S          0.00000   0.00000   0.00000   0.00000  -0.01394
   2        2S          0.00000   0.00000   0.00000   0.00000  -0.22047
   3        2PX         0.04949   0.00000  -0.03872  -0.07429  -0.09358
   4        2PY        -0.02026  -0.00001   0.15877  -0.01742  -0.02307
   5        2PZ        -0.08182   0.00000  -0.00077   0.14451  -0.05089
   6        3S          0.00000   0.00000   0.00000   0.00000   0.41599
   7        3PX        -0.36034  -0.00001  -0.01419  -0.02722  -0.49788
   8        3PY         0.14752   0.00004   0.05816  -0.00638  -0.12274
   9        3PZ         0.59576   0.00000  -0.00028   0.05294  -0.27075
  10        4XX        -0.23725  -0.00001   0.22595   0.34866  -0.26544
  11        4YY        -0.08988   0.00002  -0.32994   0.11661   0.15159
  12        4ZZ         0.32712  -0.00001   0.10399  -0.46527   0.04727
  13        4XY         0.28073   0.00001  -0.41623  -0.01183  -0.12640
  14        4XZ         0.11720   0.00001  -0.03562  -0.24490  -0.27881
  15        4YZ        -0.36304  -0.00001  -0.10921   0.07562  -0.06874
  16 2   H  1S         -0.03225  -0.00003   0.16668  -0.04496  -0.07765
  17        2S         -0.00575  -0.00001  -0.20800   0.05610   0.05285
  18        3PX         0.19845   0.29062   0.52043  -0.01642   0.52514
  19        3PY        -0.07289  -0.08713   0.19559  -0.08991  -0.07267
  20        3PZ        -0.31220  -0.49490   0.19816  -0.26451   0.32115
  21 3   H  1S          0.48459   0.00002  -0.12227  -0.12187  -0.07765
  22        2S          0.08638   0.00000   0.15259   0.15208   0.05285
  23        3PX         0.04709  -0.08981  -0.42234  -0.36874   0.40318
  24        3PY        -0.07562  -0.44196  -0.18047   0.07706   0.24868
  25        3PZ        -0.34798   0.36550  -0.05400  -0.26631   0.39975
  26 4   H  1S         -0.45235   0.00001  -0.04441   0.16682  -0.07765
  27        2S         -0.08063   0.00000   0.05542  -0.20818   0.05286
  28        3PX         0.28329  -0.20080  -0.04439   0.48819   0.57969
  29        3PY        -0.06797   0.52904  -0.23529   0.03701   0.19577
  30        3PZ        -0.21413   0.12940  -0.14309   0.33042   0.09916
  31 5   H  1S          0.00000   0.00000   0.00000   0.00000   0.02156
  32        2S          0.00000   0.00000   0.00000   0.00000  -0.54901
  33        3PX         0.05983   0.00000  -0.07817  -0.14997  -0.05225
  34        3PY        -0.02449  -0.00001   0.32050  -0.03517  -0.01288
  35        3PZ        -0.09891   0.00000  -0.00155   0.29172  -0.02842
  36 6   H  1S          0.00000   0.00000   0.00000   0.00000   0.02019
  37        2S          0.00000   0.00000   0.00000   0.00000   0.16533
  38        3PX         0.11759   0.00000   0.11204   0.21495  -0.04838
  39        3PY        -0.04814  -0.00001  -0.45936   0.05040  -0.01193
  40        3PZ        -0.19440   0.00000   0.00222  -0.41812  -0.02631
                          31        32        33        34        35
                        (A)--V    (A)--V    (A)--V    (A)--V    (A)--V
     EIGENVALUES --     2.96953   3.00275   3.00275   3.15583   3.15583
   1 1   C  1S         -0.06148   0.00000  -0.00001   0.00000   0.00000
   2        2S         -0.08523   0.00000  -0.00001   0.00000   0.00000
   3        2PX        -0.00812   0.02093   0.02250   0.11426   0.00149
   4        2PY        -0.00200  -0.05444   0.02162  -0.08167   0.20196
[...]
                    X                                                                                                                
                    X                                                                                                                
                    X                                                                                                                
                    X                                                                                                                
                    X                                                                                                                
                    X                                                                                                                
                    X                                                                                                                
                    X                                                                                                                
                    X                                                                                                                
                    X                                                                                                                
                    X                                                                                                                
                    X                                                                                                                
                    X                                                                                                                
 
 ***** Axes restored to original set *****
 -------------------------------------------------------------------
 Center     Atomic                   Forces (Hartrees/Bohr)
 Number     Number              X              Y              Z
 -------------------------------------------------------------------
    1          6          -0.018435258   -0.000000493    0.000000372
    2          1           0.001246294   -0.000118291    0.000429654
    3          1           0.001246242   -0.000313096   -0.000317523
    4          1           0.001246249    0.000431840   -0.000112474
    5          1           0.009964397   -0.000000082   -0.000000043
    6          1           0.004732076    0.000000123    0.000000014
 -------------------------------------------------------------------
 Cartesian Forces:  Max     0.018435258 RMS     0.005092459
 ------------------------------------------------------------------------
           Internal Coordinate Forces (Hartree/Bohr or radian)
 Cent Atom N1     Length/X     N2     Alpha/Y      N3      Beta/Z       J
 ------------------------------------------------------------------------
   1  C        -0.018435(   1)      0.000000(   7)      0.000000(  13)
   2  H         0.001246(   2)     -0.000118(   8)      0.000430(  14)
   3  H         0.001246(   3)     -0.000313(   9)     -0.000318(  15)
   4  H         0.001246(   4)      0.000432(  10)     -0.000112(  16)
   5  H         0.009964(   5)      0.000000(  11)      0.000000(  17)
   6  H         0.004732(   6)      0.000000(  12)      0.000000(  18)
 ------------------------------------------------------------------------
 Internal  Forces:  Max     0.018435258 RMS     0.005092459
 Force constants in Cartesian coordinates: 
                1             2             3             4             5
      1  0.801972D-01
      2 -0.403766D-05  0.627621D+00
      3  0.000000D+00  0.000000D+00  0.627619D+00
      4 -0.348832D-01 -0.214520D-01  0.778868D-01  0.350965D-01
      5 -0.167187D-01 -0.780812D-01  0.766706D-01  0.189302D-01  0.723085D-01
      6  0.607019D-01  0.766705D-01 -0.335332D+00 -0.687310D-01 -0.829192D-01
      7 -0.348829D-01 -0.567255D-01 -0.575212D-01  0.465335D-02  0.593167D-02
      8 -0.442095D-01 -0.204622D+00 -0.149729D+00  0.202044D-02  0.878802D-02
      9 -0.448297D-01 -0.149729D+00 -0.208792D+00 -0.854285D-02 -0.215102D-01
     10 -0.348845D-01  0.781814D-01 -0.203662D-01  0.465345D-02 -0.840862D-02
     11  0.609322D-01 -0.337418D+00  0.730584D-01  0.263863D-02 -0.268674D-02
     12 -0.158728D-01  0.730585D-01 -0.759954D-01 -0.837294D-02  0.281350D-01
     13  0.116322D+00  0.000000D+00  0.000000D+00 -0.128764D-01  0.244659D-03
     14  0.000000D+00 -0.128613D-01  0.000000D+00 -0.228889D-02 -0.120341D-03
     15  0.000000D+00  0.000000D+00 -0.128613D-01  0.831035D-02 -0.143766D-03
     16 -0.918684D-01  0.000000D+00  0.000000D+00  0.335630D-02  0.207750D-04
     17  0.000000D+00  0.536222D-02  0.000000D+00  0.151555D-03 -0.208305D-03
     18  0.000000D+00  0.000000D+00  0.536219D-02 -0.550346D-03 -0.232386D-03
                6             7             8             9            10
      6  0.350526D+00
      7  0.647137D-02  0.350962D-01
      8  0.888451D-02  0.500573D-01  0.209163D+00
      9 -0.138010D-01  0.507594D-01  0.161932D+00  0.213673D+00
     10  0.252174D-02  0.465344D-02 -0.857020D-02  0.190124D-02  0.350976D-01
     11 -0.225954D-02  0.638835D-02 -0.136209D-01  0.857239D-02 -0.689915D-01
     12 -0.232633D-02  0.602141D-02 -0.218222D-01  0.860779D-02  0.179723D-01
     13 -0.888640D-03 -0.128764D-01  0.647120D-03  0.656305D-03 -0.128761D-01
     14 -0.143819D-03 -0.605253D-02  0.117008D-03  0.280876D-03  0.834138D-02
     15  0.362234D-03 -0.613741D-02  0.280833D-03  0.124872D-03 -0.217292D-02
     16 -0.753480D-04  0.335630D-02  0.549003D-04  0.556447D-04  0.335620D-02
     17 -0.232383D-03  0.400789D-03  0.175233D-03  0.453815D-03 -0.552470D-03
     18  0.571403D-03  0.406428D-03  0.453817D-03  0.187869D-03  0.143906D-03
               11            12            13            14            15
     11  0.352782D+00
     12 -0.790128D-01  0.700528D-01
     13 -0.892055D-03  0.232365D-03  0.791780D-01
     14  0.366203D-03 -0.137050D-03 -0.107380D-05  0.253792D-01
     15 -0.137061D-03 -0.124246D-03  0.000000D+00  0.000000D+00  0.253792D-01
     16 -0.755979D-04  0.196961D-04 -0.156871D+00  0.148760D-05  0.000000D+00
     17  0.577710D-03 -0.221433D-03  0.000000D+00 -0.128808D-01  0.000000D+00
     18 -0.221431D-03 -0.214628D-03  0.000000D+00  0.000000D+00 -0.128808D-01
               16            17            18
     16  0.238670D+00
     17 -0.129325D-05  0.697399D-02
     18  0.000000D+00  0.000000D+00  0.697400D-02
 Force constants in internal coordinates: 
                1             2             3             4             5
      1  0.801972D-01
      2 -0.348832D-01  0.350965D-01
      3 -0.348829D-01  0.465335D-02  0.350962D-01
      4 -0.348845D-01  0.465345D-02  0.465344D-02  0.350976D-01
      5  0.116322D+00 -0.128764D-01 -0.128764D-01 -0.128761D-01  0.791780D-01
      6 -0.918684D-01  0.335630D-02  0.335630D-02  0.335620D-02 -0.156871D+00
      7 -0.403766D-05 -0.214520D-01 -0.567255D-01  0.781814D-01  0.000000D+00
      8 -0.167187D-01  0.189302D-01  0.593167D-02 -0.840862D-02  0.244659D-03
      9 -0.442095D-01  0.202044D-02  0.500573D-01 -0.857020D-02  0.647120D-03
     10  0.609322D-01  0.263863D-02  0.638835D-02 -0.689915D-01 -0.892055D-03
     11  0.000000D+00 -0.228889D-02 -0.605253D-02  0.834138D-02 -0.107380D-05
     12  0.000000D+00  0.151555D-03  0.400789D-03 -0.552470D-03  0.000000D+00
     13  0.000000D+00  0.778868D-01 -0.575212D-01 -0.203662D-01  0.000000D+00
     14  0.607019D-01 -0.687310D-01  0.647137D-02  0.252174D-02 -0.888640D-03
     15 -0.448297D-01 -0.854285D-02  0.507594D-01  0.190124D-02  0.656305D-03
     16 -0.158728D-01 -0.837294D-02  0.602141D-02  0.179723D-01  0.232365D-03
     17  0.000000D+00  0.831035D-02 -0.613741D-02 -0.217292D-02  0.000000D+00
     18  0.000000D+00 -0.550346D-03  0.406428D-03  0.143906D-03  0.000000D+00
                6             7             8             9            10
      6  0.238670D+00
      7  0.000000D+00  0.627621D+00
      8  0.207750D-04 -0.780812D-01  0.723085D-01
      9  0.549003D-04 -0.204622D+00  0.878802D-02  0.209163D+00
     10 -0.755979D-04 -0.337418D+00 -0.268674D-02 -0.136209D-01  0.352782D+00
     11  0.148760D-05 -0.128613D-01 -0.120341D-03  0.117008D-03  0.366203D-03
     12 -0.129325D-05  0.536222D-02 -0.208305D-03  0.175233D-03  0.577710D-03
     13  0.000000D+00  0.000000D+00  0.766706D-01 -0.149729D+00  0.730584D-01
     14 -0.753480D-04  0.766705D-01 -0.829192D-01  0.888451D-02 -0.225954D-02
     15  0.556447D-04 -0.149729D+00 -0.215102D-01  0.161932D+00  0.857239D-02
     16  0.196961D-04  0.730585D-01  0.281350D-01 -0.218222D-01 -0.790128D-01
     17  0.000000D+00  0.000000D+00 -0.143766D-03  0.280833D-03 -0.137061D-03
     18  0.000000D+00  0.000000D+00 -0.232386D-03  0.453817D-03 -0.221431D-03
               11            12            13            14            15
     11  0.253792D-01
     12 -0.128808D-01  0.697399D-02
     13  0.000000D+00  0.000000D+00  0.627619D+00
     14 -0.143819D-03 -0.232383D-03 -0.335332D+00  0.350526D+00
     15  0.280876D-03  0.453815D-03 -0.208792D+00 -0.138010D-01  0.213673D+00
     16 -0.137050D-03 -0.221433D-03 -0.759954D-01 -0.232633D-02  0.860779D-02
     17  0.000000D+00  0.000000D+00 -0.128613D-01  0.362234D-03  0.124872D-03
     18  0.000000D+00  0.000000D+00  0.536219D-02  0.571403D-03  0.187869D-03
               16            17            18
     16  0.700528D-01
     17 -0.124246D-03  0.253792D-01
     18 -0.214628D-03 -0.128808D-01  0.697400D-02
 Leave Link  716 at Wed Apr 17 22:15:57 2013, MaxMem=    6291456 cpu:       0.0
 (Enter /soft/g03/g03/l103.exe)

 GradGradGradGradGradGradGradGradGradGradGradGradGradGradGradGradGradGrad
 Berny optimization.
 Search for a local minimum.
 Step number   1 out of a maximum of   2
 All quantities printed in internal units (Hartrees-Bohrs-Radians)
 Second derivative matrix not updated -- analytic derivatives used.
 The second derivative matrix:
                          X1        Y1        Z1        X2        Y2
           X1           0.08020
           Y1           0.00000   0.62762
           Z1           0.00000   0.00000   0.62762
           X2          -0.03488  -0.02145   0.07789   0.03510
           Y2          -0.01672  -0.07808   0.07667   0.01893   0.07231
           Z2           0.06070   0.07667  -0.33533  -0.06873  -0.08292
           X3          -0.03488  -0.05673  -0.05752   0.00465   0.00593
           Y3          -0.04421  -0.20462  -0.14973   0.00202   0.00879
           Z3          -0.04483  -0.14973  -0.20879  -0.00854  -0.02151
           X4          -0.03488   0.07818  -0.02037   0.00465  -0.00841
           Y4           0.06093  -0.33742   0.07306   0.00264  -0.00269
           Z4          -0.01587   0.07306  -0.07600  -0.00837   0.02813
           X5           0.11632   0.00000   0.00000  -0.01288   0.00024
           Y5           0.00000  -0.01286   0.00000  -0.00229  -0.00012
           Z5           0.00000   0.00000  -0.01286   0.00831  -0.00014
           X6          -0.09187   0.00000   0.00000   0.00336   0.00002
           Y6           0.00000   0.00536   0.00000   0.00015  -0.00021
           Z6           0.00000   0.00000   0.00536  -0.00055  -0.00023
                          Z2        X3        Y3        Z3        X4
           Z2           0.35053
           X3           0.00647   0.03510
           Y3           0.00888   0.05006   0.20916
           Z3          -0.01380   0.05076   0.16193   0.21367
           X4           0.00252   0.00465  -0.00857   0.00190   0.03510
           Y4          -0.00226   0.00639  -0.01362   0.00857  -0.06899
           Z4          -0.00233   0.00602  -0.02182   0.00861   0.01797
           X5          -0.00089  -0.01288   0.00065   0.00066  -0.01288
           Y5          -0.00014  -0.00605   0.00012   0.00028   0.00834
           Z5           0.00036  -0.00614   0.00028   0.00012  -0.00217
           X6          -0.00008   0.00336   0.00005   0.00006   0.00336
           Y6          -0.00023   0.00040   0.00018   0.00045  -0.00055
           Z6           0.00057   0.00041   0.00045   0.00019   0.00014
                          Y4        Z4        X5        Y5        Z5
           Y4           0.35278
           Z4          -0.07901   0.07005
           X5          -0.00089   0.00023   0.07918
           Y5           0.00037  -0.00014   0.00000   0.02538
           Z5          -0.00014  -0.00012   0.00000   0.00000   0.02538
           X6          -0.00008   0.00002  -0.15687   0.00000   0.00000
           Y6           0.00058  -0.00022   0.00000  -0.01288   0.00000
           Z6          -0.00022  -0.00021   0.00000   0.00000  -0.01288
                          X6        Y6        Z6
           X6           0.23867
           Y6           0.00000   0.00697
           Z6           0.00000   0.00000   0.00697
     Eigenvalues ---   -0.05582   0.01001   0.01001   0.03895   0.03895
     Eigenvalues ---    0.05996   0.11277   0.11277   0.35694   0.44148
     Eigenvalues ---    0.84565   0.84565
 Eigenvalue   1 out of range, new value =    0.055817 Eigenvector:
                           1
           X1           0.48378
           Y1           0.00000
           Z1           0.00000
           X2          -0.02528
           Y2           0.02019
           Z2          -0.07332
           X3          -0.02528
           Y3           0.05340
           Z3           0.05415
           X4          -0.02527
           Y4          -0.07360
           Z4           0.01917
           X5          -0.81104
           Y5           0.00000
           Z5           0.00000
           X6          -0.29815
           Y6           0.00000
           Z6           0.00000
 Quadratic step=3.440D-01 exceeds max=3.000D-01 adjusted using Lamda=-8.227D-03.
 Angle between NR and scaled steps=   0.29 degrees.
 Angle between quadratic step and forces=  25.60 degrees.
 Linear search not attempted -- first point.
 TrRot= -0.041126 -0.000001  0.000000  0.000000  0.000000  0.000000
 Variable       Old X    -DE/DX   Delta X   Delta X   Delta X     New X
                                 (Linear)    (Quad)   (Total)
    X1       -0.53398  -0.01844   0.00000  -0.17024  -0.21136  -0.74535
    Y1        0.00000   0.00000   0.00000   0.00000   0.00000   0.00000
    Z1        0.00000   0.00000   0.00000   0.00000   0.00000   0.00000
    X2       -0.97432   0.00125   0.00000   0.04335   0.00222  -0.97209
    Y2       -0.52911  -0.00012   0.00000  -0.00802  -0.00802  -0.53713
    Z2        1.92105   0.00043   0.00000   0.02913   0.02913   1.95018
    X3       -0.97431   0.00125   0.00000   0.04335   0.00222  -0.97209
    Y3       -1.39913  -0.00031   0.00000  -0.02121  -0.02122  -1.42034
    Z3       -1.41875  -0.00032   0.00000  -0.02151  -0.02151  -1.44026
    X4       -0.97434   0.00125   0.00000   0.04336   0.00223  -0.97210
    Y4        1.92823   0.00043   0.00000   0.02924   0.02924   1.95747
    Z4       -0.50230  -0.00011   0.00000  -0.00762  -0.00762  -0.50992
    X5        2.30538   0.00996   0.00000   0.21925   0.17812   2.48350
    Y5        0.00001   0.00000   0.00000   0.00000   0.00000   0.00001
    Z5        0.00000   0.00000   0.00000   0.00000   0.00000   0.00000
    X6        3.82148   0.00473   0.00000   0.06769   0.02656   3.84804
    Y6        0.00000   0.00000   0.00000   0.00001   0.00001   0.00001
    Z6        0.00000   0.00000   0.00000   0.00000   0.00000   0.00000
         Item               Value     Threshold  Converged?
 Maximum Force            0.018435     0.000450     NO 
 RMS     Force            0.005092     0.000300     NO 
 Maximum Displacement     0.211364     0.001800     NO 
 RMS     Displacement     0.066609     0.001200     NO 
 Predicted change in Energy=-8.004938D-03
 GradGradGradGradGradGradGradGradGradGradGradGradGradGradGradGradGradGrad

 Leave Link  103 at Wed Apr 17 22:15:57 2013, MaxMem=    6291456 cpu:       0.0
 (Enter /soft/g03/g03/l9999.exe)

 Test job not archived.
 1\1\GINC-AN179\Freq\UMP2-FC\6-31G(d,p)\C1H5(2)\SCANNE04\17-Apr-2013\0\
 \#P MP2 6-31G** IOP(6/7=3) GFINPUT POP=FULL # FREQ\\job\\0,2\C,-0.2825
 711818,-0.0000000909,0.\H,-0.5155861818,-0.2799940909,1.016577\H,-0.51
 55841818,-0.7403870909,-0.750768\H,-0.5155961818,1.0203749091,-0.26580
 8\H,1.2199548182,0.0000059091,0.\H,2.0222388182,0.0000009091,-0.000001
 \\Version=AM64L-G03RevC.02\State=2-A\HF=-40.6661592\MP2=-40.8290819\PU
 HF=-40.6717437\PMP2-0=-40.8328432\S2=0.776694\S2-1=0.759134\S2A=0.7503
 34\RMSD=3.276e-09\RMSF=5.092e-03\Dipole=-0.2847171,-0.0000013,0.\Dipol
 eDeriv=-0.0845851,-0.0000013,0.,-0.0000018,0.0602295,0.,0.,0.,0.060229
 8,0.0497825,-0.0136312,0.0494926,-0.0022338,0.0418276,0.0290147,0.0081
 104,0.0290144,-0.0555239,0.0497824,-0.0360456,-0.0365514,-0.0059067,-0
 .0060593,-0.0566618,-0.0059897,-0.0566616,-0.0076371,0.0497826,0.04967
 88,-0.0129413,0.0081416,-0.056312,0.0276472,-0.0021208,0.0276473,0.042
 617,0.1812762,-0.0000005,-0.0000001,0.,-0.0214517,0.,0.,0.,-0.0214515,
 -0.2460385,-0.0000003,0.0000002,0.0000008,-0.0182342,0.,0.0000001,0.,-
 0.0182342\Polar=24.6145976,-0.0000521,12.4703273,-0.0000082,-0.0000005
 ,12.4703367\PG=C01 [X(C1H5)]\NImag=1\\0.08019716,-0.00000404,0.6276206
 4,0.00000061,-0.00000009,0.62761867,-0.03488319,-0.02145196,0.07788677
 ,0.03509647,-0.01671873,-0.07808116,0.07667059,0.01893023,0.07230852,0
 .06070186,0.07667045,-0.33533220,-0.06873098,-0.08291922,0.35052595,-0
 .03488288,-0.05672554,-0.05752117,0.00465335,0.00593167,0.00647137,0.0
 3509616,-0.04420952,-0.20462239,-0.14972891,0.00202044,0.00878802,0.00
 888451,0.05005726,0.20916298,-0.04482971,-0.14972882,-0.20879199,-0.00
 854285,-0.02151017,-0.01380105,0.05075937,0.16193191,0.21367250,-0.034
 88451,0.07818139,-0.02036623,0.00465345,-0.00840862,0.00252174,0.00465
 344,-0.00857020,0.00190124,0.03509757,0.06093216,-0.33741806,0.0730584
 3,0.00263863,-0.00268674,-0.00225954,0.00638835,-0.01362086,0.00857239
 ,-0.06899149,0.35278174,-0.01587280,0.07305847,-0.07599542,-0.00837294
 ,0.02813495,-0.00232633,0.00602141,-0.02182215,0.00860779,0.01797227,-
 0.07901279,0.07005284,0.11632179,0.00000043,0.00000003,-0.01287638,0.0
 0024466,-0.00088864,-0.01287637,0.00064712,0.00065630,-0.01287614,-0.0
 0089206,0.00023237,0.07917797,-0.00000037,-0.01286126,-0.00000001,-0.0
 0228889,-0.00012034,-0.00014382,-0.00605253,0.00011701,0.00028088,0.00
 834138,0.00036620,-0.00013705,-0.00000107,0.02537924,-0.00000006,-0.00
 000001,-0.01286126,0.00831035,-0.00014377,0.00036223,-0.00613741,0.000
 28083,0.00012487,-0.00217292,-0.00013706,-0.00012425,-0.00000024,0.,0.
 02537923,-0.09186838,-0.00000027,0.,0.00335630,0.00002078,-0.00007535,
 0.00335630,0.00005490,0.00005564,0.00335620,-0.00007560,0.00001970,-0.
 15687087,0.00000149,0.00000028,0.23867045,0.00000050,0.00536222,0.,0.0
 0015155,-0.00020831,-0.00023238,0.00040079,0.00017523,0.00045381,-0.00
 055247,0.00057771,-0.00022143,0.00000092,-0.01288085,0.,-0.00000129,0.
 00697399,0.00000010,0.,0.00536219,-0.00055035,-0.00023239,0.00057140,0
 .00040643,0.00045382,0.00018787,0.00014391,-0.00022143,-0.00021463,0.0
 0000018,0.,-0.01288083,-0.00000027,0.,0.00697400\\0.01843526,0.0000004
 9,-0.00000037,-0.00124629,0.00011829,-0.00042965,-0.00124624,0.0003131
 0,0.00031752,-0.00124625,-0.00043184,0.00011247,-0.00996440,0.00000008
 ,0.00000004,-0.00473208,-0.00000012,-0.00000001\\\@


 I DON'T EXACTLY UNDERSTAND WHAT YOU ARE SAYING,
 BUT YOU ARE ABSOLUTELY RIGHT.
     M.S.GORDON, IN A NDSU FACULTY MEETING
 Job cpu time:  0 days  0 hours  0 minutes  9.7 seconds.
 File lengths (MBytes):  RWF=     54 Int=      0 D2E=      0 Chk=      6 Scr=      1
 Normal termination of Gaussian 03 at Wed Apr 17 22:15:57 2013.
total 44
drwx------   2 scanne04 2013007  4096 Apr 17 22:15 .
drwxrwxrwt 191 root     root    36864 Apr 17 22:15 ..
-rw-r--r--   1 scanne04 2013007   395 Apr 17 22:15 2.f_0.199.inp
/local/run/antares-adm.116015.0
