 Entering Gaussian System, Link 0=g03
 Initial command:
 /soft/g03/g03/l1.exe /local/run/antares-adm.114832.0/Gau-9025.inp -scrdir=/local/run/antares-adm.114832.0/
 Entering Link 1 = /soft/g03/g03/l1.exe PID=      9026.
  
 Copyright (c) 1988,1990,1992,1993,1995,1998,2003,2004, Gaussian, Inc.
                  All Rights Reserved.
  
 This is the Gaussian(R) 03 program.  It is based on the
 the Gaussian(R) 98 system (copyright 1998, Gaussian, Inc.),
 the Gaussian(R) 94 system (copyright 1995, Gaussian, Inc.),
 the Gaussian 92(TM) system (copyright 1992, Gaussian, Inc.),
 the Gaussian 90(TM) system (copyright 1990, Gaussian, Inc.),
 the Gaussian 88(TM) system (copyright 1988, Gaussian, Inc.),
 the Gaussian 86(TM) system (copyright 1986, Carnegie Mellon
 University), and the Gaussian 82(TM) system (copyright 1983,
 Carnegie Mellon University). Gaussian is a federally registered
 trademark of Gaussian, Inc.
  
 This software contains proprietary and confidential information,
 including trade secrets, belonging to Gaussian, Inc.
  
 This software is provided under written license and may be
 used, copied, transmitted, or stored only in accord with that
 written license.
  
 The following legend is applicable only to US Government
 contracts under FAR:
  
                    RESTRICTED RIGHTS LEGEND
  
 Use, reproduction and disclosure by the US Government is
 subject to restrictions as set forth in subparagraphs (a)
 and (c) of the Commercial Computer Software - Restricted
 Rights clause in FAR 52.227-19.
  
 Gaussian, Inc.
 340 Quinnipiac St., Bldg. 40, Wallingford CT 06492
  
  
 ---------------------------------------------------------------
 Warning -- This program may not be used in any manner that
 competes with the business of Gaussian, Inc. or will provide
 assistance to any competitor of Gaussian, Inc.  The licensee
 of this program is prohibited from giving any competitor of
 Gaussian, Inc. access to this program.  By using this program,
 the user acknowledges that Gaussian, Inc. is engaged in the
 business of creating and licensing software in the field of
 computational chemistry and represents and warrants to the
 licensee that it is not a competitor of Gaussian, Inc. and that
 it will not use this program in any manner prohibited above.
 ---------------------------------------------------------------
  

 Cite this work as:
 Gaussian 03, Revision C.02,
 M. J. Frisch, G. W. Trucks, H. B. Schlegel, G. E. Scuseria, 
 M. A. Robb, J. R. Cheeseman, J. A. Montgomery, Jr., T. Vreven, 
 K. N. Kudin, J. C. Burant, J. M. Millam, S. S. Iyengar, J. Tomasi, 
 V. Barone, B. Mennucci, M. Cossi, G. Scalmani, N. Rega, 
 G. A. Petersson, H. Nakatsuji, M. Hada, M. Ehara, K. Toyota, 
 R. Fukuda, J. Hasegawa, M. Ishida, T. Nakajima, Y. Honda, O. Kitao, 
 H. Nakai, M. Klene, X. Li, J. E. Knox, H. P. Hratchian, J. B. Cross, 
 C. Adamo, J. Jaramillo, R. Gomperts, R. E. Stratmann, O. Yazyev, 
 A. J. Austin, R. Cammi, C. Pomelli, J. W. Ochterski, P. Y. Ayala, 
 K. Morokuma, G. A. Voth, P. Salvador, J. J. Dannenberg, 
 V. G. Zakrzewski, S. Dapprich, A. D. Daniels, M. C. Strain, 
 O. Farkas, D. K. Malick, A. D. Rabuck, K. Raghavachari, 
 J. B. Foresman, J. V. Ortiz, Q. Cui, A. G. Baboul, S. Clifford, 
 J. Cioslowski, B. B. Stefanov, G. Liu, A. Liashenko, P. Piskorz, 
 I. Komaromi, R. L. Martin, D. J. Fox, T. Keith, M. A. Al-Laham, 
 C. Y. Peng, A. Nanayakkara, M. Challacombe, P. M. W. Gill, 
 B. Johnson, W. Chen, M. W. Wong, C. Gonzalez, and J. A. Pople, 
 Gaussian, Inc., Wallingford CT, 2004.
 
 ******************************************
 Gaussian 03:  AM64L-G03RevC.02 12-Jun-2004
                10-Apr-2013 
 ******************************************
 ----------------------------------------------------------------------
 #P MP2 6-31G** iop(6/7=3) gfinput pop=full # irc=(calcfc,forward,maxpo
 ints=30)
 ----------------------------------------------------------------------
 1/10=4,18=40,22=1,29=120000,38=1,42=30/1,15;
 2/17=6,18=5,29=3,40=1/2;
 3/5=1,6=6,7=101,11=9,16=1,24=10,25=1,30=1/1,2,3;
 4//1;
 5/5=2,38=5/2;
 8/6=3,8=1,10=2,19=11,30=-1/1;
 9/15=3,16=-3/6;
 11/6=1,8=1,15=11,17=12,24=-1,27=1,28=-2,29=300,32=6,42=3/1,2,10;
 10/6=2,21=1/2;
 8/6=4,8=1,10=2,19=11,30=-1/11,4;
 10/5=1,20=4/2;
 11/12=2,14=11,16=1,17=2,28=-2,42=3/2,10,12;
 6/7=3/1;
 7/10=1,12=2,25=1,44=2/1,2,3,16;
 1/10=4,22=1,42=30/15(1);
 99//99;
 2/29=3/2;
 3/5=1,6=6,7=101,11=9,16=1,25=1,30=1/1,2,3;
 4/5=5,16=3/1;
 5/5=2,38=5/2;
 8/6=4,10=2/1;
 9/15=2,16=-3/6;
 10/5=1/2;
 7/12=2/1,2,3,16;
 1/22=1,42=30/15(-8);
 2/29=3/2;
 6/7=3/1;
 99//99;
 Leave Link    1 at Wed Apr 10 03:02:42 2013, MaxMem=          0 cpu:       0.1
 (Enter /soft/g03/g03/l101.exe)
 ---
 job
 ---
 Symbolic Z-matrix:
 Charge =  0 Multiplicity = 2
 6                    -0.26404   0.        0. 
 1                    -0.51921  -0.41176   0.96682 
 1                    -0.51921  -0.63141  -0.84 
 1                    -0.51922   1.04317  -0.12681 
 1                     1.13297   0.00001   0. 
 1                     2.00893   0.       0. 
 
                    Isotopes and Nuclear Properties:

  Atom         1           2           3           4           5           6
 IAtWgt=          12           1           1           1           1           1
 AtmWgt=  12.0000000   1.0078250   1.0078250   1.0078250   1.0078250   1.0078250
 IAtSpn=           0           1           1           1           1           1
 AtZEff=   0.0000000   0.0000000   0.0000000   0.0000000   0.0000000   0.0000000
 AtQMom=   0.0000000   0.0000000   0.0000000   0.0000000   0.0000000   0.0000000
 AtGFac=   0.0000000   2.7928460   2.7928460   2.7928460   2.7928460   2.7928460
 Leave Link  101 at Wed Apr 10 03:02:42 2013, MaxMem=    6291456 cpu:       0.1
 (Enter /soft/g03/g03/l115.exe)
 IRC-IRC-IRC-IRC-IRC-IRC-IRC-IRC-IRC-IRC-IRC-IRC-IRC-IRC-IRC-IRC-IRC-IRC
 Berny reaction coordinate optimization.
 Number of steps in this run=   0 maximum allowed number of steps= 100.
 IRC-IRC-IRC-IRC-IRC-IRC-IRC-IRC-IRC-IRC-IRC-IRC-IRC-IRC-IRC-IRC-IRC-IRC
 Leave Link  115 at Wed Apr 10 03:02:43 2013, MaxMem=    6291456 cpu:       0.0
 (Enter /soft/g03/g03/l202.exe)
 ------------------------------------------------------------------------
                         Z-MATRIX (ANGSTROMS AND DEGREES)
 CD Cent Atom  N1     Length/X     N2    Alpha/Y     N3     Beta/Z      J
 ------------------------------------------------------------------------
   1   1  C     0  -0.264044          0.000000          0.000000
   2   2  H     0  -0.519209         -0.411764          0.966816
   3   3  H     0  -0.519208         -0.631408         -0.840004
   4   4  H     0  -0.519221          1.043166         -0.126811
   5   5  H     0   1.132971          0.000008          0.000001
   6   6  H     0   2.008933          0.000000         -0.000001
 ------------------------------------------------------------------------
                         Z-Matrix orientation:                         
 ---------------------------------------------------------------------
 Center     Atomic     Atomic              Coordinates (Angstroms)
 Number     Number      Type              X           Y           Z
 ---------------------------------------------------------------------
    1          6             0       -0.264044    0.000000    0.000000
    2          1             0       -0.519209   -0.411764    0.966816
    3          1             0       -0.519208   -0.631408   -0.840004
    4          1             0       -0.519221    1.043166   -0.126811
    5          1             0        1.132971    0.000008    0.000001
    6          1             0        2.008933    0.000000   -0.000001
 ---------------------------------------------------------------------
                    Distance matrix (angstroms):
                    1          2          3          4          5
     1  C    0.000000
     2  H    1.081384   0.000000
     3  H    1.081384   1.820121   0.000000
     4  H    1.081384   1.820121   1.820122   0.000000
     5  H    1.397015   1.958057   1.958058   1.958060   0.000000
     6  H    2.272977   2.737843   2.737842   2.737853   0.875962
                    6
     6  H    0.000000
                           Interatomic angles:
       H2-C1-H3=114.6126       H2-C1-H4=114.6126       H3-C1-H4=114.6126
       H3-H2-H4= 60.           H2-C1-H5=103.6484       H3-C1-H5=103.6485
       H3-H2-H5= 62.3042       H4-C1-H5=103.6486       H4-H2-H5= 62.3043
       H4-H3-H5= 62.3043       H2-C1-H6=103.6483       H3-C1-H6=103.6482
       H2-H3-H6= 70.5855       H4-C1-H6=103.649        H4-H2-H6= 70.5858
       H4-H3-H6= 70.5858       C1-H5-H6=179.9991       H2-H5-H6=147.542 
       H3-H5-H6=147.5415       H4-H5-H6=147.5431
 This structure is nearly, but not quite of a higher symmetry.
 Consider Symm=Loose if the higher symmetry is desired.
 Stoichiometry    CH5(2)
 Framework group  C1[X(CH5)]
 Deg. of freedom    12
 Full point group                 C1      NOp   1
 Largest Abelian subgroup         C1      NOp   1
 Largest concise Abelian subgroup C1      NOp   1
                         Standard orientation:                         
 ---------------------------------------------------------------------
 Center     Atomic     Atomic              Coordinates (Angstroms)
 Number     Number      Type              X           Y           Z
 ---------------------------------------------------------------------
    1          6             0       -0.144689   -0.110295   -0.191362
    2          1             0        0.538936   -0.804860   -0.660006
    3          1             0       -0.429830    0.728577   -0.811346
    4          1             0       -0.962646   -0.574363    0.342473
    5          1             0        0.620833    0.473254    0.821109
    6          1             0        1.100839    0.839162    1.455944
 ---------------------------------------------------------------------
 Rotational constants (GHZ):    151.3670493     59.1976832     59.1976791
 Leave Link  202 at Wed Apr 10 03:02:43 2013, MaxMem=    6291456 cpu:       0.0
 (Enter /soft/g03/g03/l301.exe)
 Standard basis: 6-31G(d,p) (6D, 7F)
 AO basis set in the form of general basis input:
  1 0
 S   6 1.00       0.000000000000
      0.3047524880D+04  0.1834737132D-02
      0.4573695180D+03  0.1403732281D-01
      0.1039486850D+03  0.6884262226D-01
      0.2921015530D+02  0.2321844432D+00
      0.9286662960D+01  0.4679413484D+00
      0.3163926960D+01  0.3623119853D+00
 SP   3 1.00       0.000000000000
      0.7868272350D+01 -0.1193324198D+00  0.6899906659D-01
      0.1881288540D+01 -0.1608541517D+00  0.3164239610D+00
      0.5442492580D+00  0.1143456438D+01  0.7443082909D+00
 SP   1 1.00       0.000000000000
      0.1687144782D+00  0.1000000000D+01  0.1000000000D+01
 D   1 1.00       0.000000000000
      0.8000000000D+00  0.1000000000D+01
 ****
  2 0
 S   3 1.00       0.000000000000
      0.1873113696D+02  0.3349460434D-01
      0.2825394365D+01  0.2347269535D+00
      0.6401216923D+00  0.8137573261D+00
 S   1 1.00       0.000000000000
      0.1612777588D+00  0.1000000000D+01
 P   1 1.00       0.000000000000
      0.1100000000D+01  0.1000000000D+01
 ****
  3 0
 S   3 1.00       0.000000000000
      0.1873113696D+02  0.3349460434D-01
      0.2825394365D+01  0.2347269535D+00
      0.6401216923D+00  0.8137573261D+00
 S   1 1.00       0.000000000000
      0.1612777588D+00  0.1000000000D+01
 P   1 1.00       0.000000000000
      0.1100000000D+01  0.1000000000D+01
 ****
  4 0
 S   3 1.00       0.000000000000
      0.1873113696D+02  0.3349460434D-01
      0.2825394365D+01  0.2347269535D+00
      0.6401216923D+00  0.8137573261D+00
 S   1 1.00       0.000000000000
      0.1612777588D+00  0.1000000000D+01
 P   1 1.00       0.000000000000
      0.1100000000D+01  0.1000000000D+01
 ****
  5 0
 S   3 1.00       0.000000000000
      0.1873113696D+02  0.3349460434D-01
      0.2825394365D+01  0.2347269535D+00
      0.6401216923D+00  0.8137573261D+00
 S   1 1.00       0.000000000000
      0.1612777588D+00  0.1000000000D+01
 P   1 1.00       0.000000000000
      0.1100000000D+01  0.1000000000D+01
 ****
  6 0
 S   3 1.00       0.000000000000
      0.1873113696D+02  0.3349460434D-01
      0.2825394365D+01  0.2347269535D+00
      0.6401216923D+00  0.8137573261D+00
 S   1 1.00       0.000000000000
      0.1612777588D+00  0.1000000000D+01
 P   1 1.00       0.000000000000
      0.1100000000D+01  0.1000000000D+01
 ****

 There are    40 symmetry adapted basis functions of A   symmetry.
 Integral buffers will be    131072 words long.
 Raffenetti 2 integral format.
 Two-electron integral symmetry is turned on.
    40 basis functions,    63 primitive gaussians,    40 cartesian basis functions
     6 alpha electrons        5 beta electrons
       nuclear repulsion energy        15.3448907456 Hartrees.
 IExCor=   0 DFT=F Ex=HF Corr=None ExCW=0 ScaHFX=  1.000000
 ScaDFX=  1.000000  1.000000  1.000000  1.000000
 IRadAn=      0 IRanWt=     -1 IRanGd=            0 ICorTp=0
 NAtoms=    6 NActive=    6 NUniq=    6 SFac= 1.00D+00 NAtFMM=   60 Big=F
 Leave Link  301 at Wed Apr 10 03:02:43 2013, MaxMem=    6291456 cpu:       0.0
 (Enter /soft/g03/g03/l302.exe)
 NPDir=0 NMtPBC=     1 NCelOv=     1 NCel=       1 NClECP=     1 NCelD=      1
         NCelK=      1 NCelE2=     1 NClLst=     1 CellRange=     0.0.
 One-electron integrals computed using PRISM.
 NBasis=    40 RedAO= T  NBF=    40
 NBsUse=    40 1.00D-06 NBFU=    40
 Leave Link  302 at Wed Apr 10 03:02:43 2013, MaxMem=    6291456 cpu:       0.1
 (Enter /soft/g03/g03/l303.exe)
 DipDrv:  MaxL=1.
 Leave Link  303 at Wed Apr 10 03:02:43 2013, MaxMem=    6291456 cpu:       0.0
 (Enter /soft/g03/g03/l401.exe)
 Harris functional with IExCor=  205 diagonalized for initial guess.
 ExpMin= 1.61D-01 ExpMax= 3.05D+03 ExpMxC= 4.57D+02 IAcc=1 IRadAn=         1 AccDes= 1.00D-06
 HarFok:  IExCor= 205 AccDes= 1.00D-06 IRadAn=         1 IDoV=1
 ScaDFX=  1.000000  1.000000  1.000000  1.000000
 Harris En= -40.8385925729231    
 Initial guess orbital symmetries:
 Alpha Orbitals:
       Occupied  (A) (A) (A) (A) (A) (A)
       Virtual   (A) (A) (A) (A) (A) (A) (A) (A) (A) (A) (A) (A)
                 (A) (A) (A) (A) (A) (A) (A) (A) (A) (A) (A) (A)
                 (A) (A) (A) (A) (A) (A) (A) (A) (A) (A)
 Beta  Orbitals:
       Occupied  (A) (A) (A) (A) (A)
       Virtual   (A) (A) (A) (A) (A) (A) (A) (A) (A) (A) (A) (A)
                 (A) (A) (A) (A) (A) (A) (A) (A) (A) (A) (A) (A)
                 (A) (A) (A) (A) (A) (A) (A) (A) (A) (A) (A)
 The electronic state of the initial guess is 2-A.
 <S**2> of initial guess= 0.7500
 Leave Link  401 at Wed Apr 10 03:02:43 2013, MaxMem=    6291456 cpu:       0.1
 (Enter /soft/g03/g03/l502.exe)
 UHF open shell SCF:
 Requested convergence on RMS density matrix=1.00D-08 within 128 cycles.
 Requested convergence on MAX density matrix=1.00D-06.
 Requested convergence on             energy=1.00D-06.
 No special actions if energy rises.
 Using DIIS extrapolation, IDIIS=  1040.
 Integral symmetry usage will be decided dynamically.
 Keep R1 and R2 integrals in memory in canonical form, NReq=     1550873.
 IEnd=     23199 IEndB=     23199 NGot=   6291456 MDV=   5613304
 LenX=   5613304
 Symmetry not used in FoFDir.
 MinBra= 0 MaxBra= 2 Meth= 1.
 IRaf=       0 NMat=   1 IRICut=       1 DoRegI=T DoRafI=F ISym2E= 0 JSym2E=0.

 Cycle   1  Pass 1  IDiag  1:
 E= -40.5333663695454    
 DIIS: error= 5.91D-02 at cycle   1 NSaved=   1.
 NSaved= 1 IEnMin= 1 EnMin= -40.5333663695454     IErMin= 1 ErrMin= 5.91D-02
 ErrMax= 5.91D-02 EMaxC= 1.00D-01 BMatC= 5.14D-01 BMatP= 5.14D-01
 IDIUse=3 WtCom= 4.09D-01 WtEn= 5.91D-01
 Coeff-Com:  0.100D+01
 Coeff-En:   0.100D+01
 Coeff:      0.100D+01
 Gap=     0.590 Goal=   None    Shift=    0.000
 Gap=     0.631 Goal=   None    Shift=    0.000
 GapD=    0.590 DampG=2.000 DampE=0.500 DampFc=1.0000 IDamp=-1.
 RMSDP=1.04D-02 MaxDP=1.67D-01              OVMax= 1.81D-01

 Cycle   2  Pass 1  IDiag  1:
 E= -40.6382910331072     Delta-E=       -0.104924663562 Rises=F Damp=F
 DIIS: error= 2.24D-02 at cycle   2 NSaved=   2.
 NSaved= 2 IEnMin= 2 EnMin= -40.6382910331072     IErMin= 2 ErrMin= 2.24D-02
 ErrMax= 2.24D-02 EMaxC= 1.00D-01 BMatC= 8.67D-02 BMatP= 5.14D-01
 IDIUse=3 WtCom= 7.76D-01 WtEn= 2.24D-01
 Coeff-Com:  0.250D+00 0.750D+00
 Coeff-En:   0.000D+00 0.100D+01
 Coeff:      0.194D+00 0.806D+00
 Gap=     0.613 Goal=   None    Shift=    0.000
 Gap=     0.676 Goal=   None    Shift=    0.000
 RMSDP=3.78D-03 MaxDP=5.12D-02 DE=-1.05D-01 OVMax= 5.63D-02

 Cycle   3  Pass 1  IDiag  1:
 E= -40.6601078597742     Delta-E=       -0.021816826667 Rises=F Damp=F
 DIIS: error= 8.34D-03 at cycle   3 NSaved=   3.
 NSaved= 3 IEnMin= 3 EnMin= -40.6601078597742     IErMin= 3 ErrMin= 8.34D-03
 ErrMax= 8.34D-03 EMaxC= 1.00D-01 BMatC= 3.32D-03 BMatP= 8.67D-02
 IDIUse=3 WtCom= 9.17D-01 WtEn= 8.34D-02
 Coeff-Com: -0.484D-01 0.217D-01 0.103D+01
 Coeff-En:   0.000D+00 0.000D+00 0.100D+01
 Coeff:     -0.444D-01 0.199D-01 0.102D+01
 Gap=     0.602 Goal=   None    Shift=    0.000
 Gap=     0.637 Goal=   None    Shift=    0.000
 RMSDP=1.00D-03 MaxDP=2.43D-02 DE=-2.18D-02 OVMax= 2.48D-02

 Cycle   4  Pass 1  IDiag  1:
 E= -40.6618058402668     Delta-E=       -0.001697980493 Rises=F Damp=F
 DIIS: error= 2.86D-03 at cycle   4 NSaved=   4.
 NSaved= 4 IEnMin= 4 EnMin= -40.6618058402668     IErMin= 4 ErrMin= 2.86D-03
 ErrMax= 2.86D-03 EMaxC= 1.00D-01 BMatC= 5.34D-04 BMatP= 3.32D-03
 IDIUse=3 WtCom= 9.71D-01 WtEn= 2.86D-02
 Coeff-Com:  0.249D-01-0.661D-01-0.834D+00 0.188D+01
 Coeff-En:   0.000D+00 0.000D+00 0.000D+00 0.100D+01
 Coeff:      0.241D-01-0.642D-01-0.810D+00 0.185D+01
 Gap=     0.608 Goal=   None    Shift=    0.000
 Gap=     0.650 Goal=   None    Shift=    0.000
 RMSDP=8.88D-04 MaxDP=2.02D-02 DE=-1.70D-03 OVMax= 1.90D-02

 Cycle   5  Pass 1  IDiag  1:
 E= -40.6622884075125     Delta-E=       -0.000482567246 Rises=F Damp=F
 DIIS: error= 5.39D-04 at cycle   5 NSaved=   5.
 NSaved= 5 IEnMin= 5 EnMin= -40.6622884075125     IErMin= 5 ErrMin= 5.39D-04
 ErrMax= 5.39D-04 EMaxC= 1.00D-01 BMatC= 2.72D-05 BMatP= 5.34D-04
 IDIUse=3 WtCom= 9.95D-01 WtEn= 5.39D-03
 Coeff-Com: -0.925D-02 0.327D-01 0.360D+00-0.939D+00 0.156D+01
 Coeff-En:   0.000D+00 0.000D+00 0.000D+00 0.000D+00 0.100D+01
 Coeff:     -0.920D-02 0.325D-01 0.358D+00-0.934D+00 0.155D+01
 Gap=     0.609 Goal=   None    Shift=    0.000
 Gap=     0.652 Goal=   None    Shift=    0.000
 RMSDP=1.66D-04 MaxDP=1.97D-03 DE=-4.83D-04 OVMax= 3.15D-03

 Cycle   6  Pass 1  IDiag  1:
 E= -40.6623145199768     Delta-E=       -0.000026112464 Rises=F Damp=F
 DIIS: error= 1.66D-04 at cycle   6 NSaved=   6.
 NSaved= 6 IEnMin= 6 EnMin= -40.6623145199768     IErMin= 6 ErrMin= 1.66D-04
 ErrMax= 1.66D-04 EMaxC= 1.00D-01 BMatC= 4.11D-06 BMatP= 2.72D-05
 IDIUse=3 WtCom= 9.98D-01 WtEn= 1.66D-03
 Coeff-Com:  0.141D-02-0.692D-02-0.694D-01 0.212D+00-0.700D+00 0.156D+01
 Coeff-En:   0.000D+00 0.000D+00 0.000D+00 0.000D+00 0.000D+00 0.100D+01
 Coeff:      0.141D-02-0.691D-02-0.692D-01 0.212D+00-0.699D+00 0.156D+01
 Gap=     0.609 Goal=   None    Shift=    0.000
 Gap=     0.652 Goal=   None    Shift=    0.000
 RMSDP=8.99D-05 MaxDP=1.29D-03 DE=-2.61D-05 OVMax= 1.29D-03

 Cycle   7  Pass 1  IDiag  1:
 E= -40.6623192974876     Delta-E=       -0.000004777511 Rises=F Damp=F
 DIIS: error= 7.96D-05 at cycle   7 NSaved=   7.
 NSaved= 7 IEnMin= 7 EnMin= -40.6623192974876     IErMin= 7 ErrMin= 7.96D-05
 ErrMax= 7.96D-05 EMaxC= 1.00D-01 BMatC= 7.17D-07 BMatP= 4.11D-06
 IDIUse=1 WtCom= 1.00D+00 WtEn= 0.00D+00
 Coeff-Com:  0.900D-03-0.237D-02-0.268D-01 0.563D-01 0.809D-01-0.864D+00
 Coeff-Com:  0.176D+01
 Coeff:      0.900D-03-0.237D-02-0.268D-01 0.563D-01 0.809D-01-0.864D+00
 Coeff:      0.176D+01
 Gap=     0.609 Goal=   None    Shift=    0.000
 Gap=     0.652 Goal=   None    Shift=    0.000
 RMSDP=5.18D-05 MaxDP=8.50D-04 DE=-4.78D-06 OVMax= 8.20D-04

 Cycle   8  Pass 1  IDiag  1:
 E= -40.6623202533223     Delta-E=       -0.000000955835 Rises=F Damp=F
 DIIS: error= 1.95D-05 at cycle   8 NSaved=   8.
 NSaved= 8 IEnMin= 8 EnMin= -40.6623202533223     IErMin= 8 ErrMin= 1.95D-05
 ErrMax= 1.95D-05 EMaxC= 1.00D-01 BMatC= 3.17D-08 BMatP= 7.17D-07
 IDIUse=1 WtCom= 1.00D+00 WtEn= 0.00D+00
 Coeff-Com: -0.355D-03 0.120D-02 0.135D-01-0.333D-01 0.358D-01 0.122D+00
 Coeff-Com: -0.544D+00 0.141D+01
 Coeff:     -0.355D-03 0.120D-02 0.135D-01-0.333D-01 0.358D-01 0.122D+00
 Coeff:     -0.544D+00 0.141D+01
 Gap=     0.609 Goal=   None    Shift=    0.000
 Gap=     0.652 Goal=   None    Shift=    0.000
 RMSDP=8.83D-06 MaxDP=1.99D-04 DE=-9.56D-07 OVMax= 1.93D-04

 Cycle   9  Pass 1  IDiag  1:
 E= -40.6623202875248     Delta-E=       -0.000000034202 Rises=F Damp=F
 DIIS: error= 5.08D-06 at cycle   9 NSaved=   9.
 NSaved= 9 IEnMin= 9 EnMin= -40.6623202875248     IErMin= 9 ErrMin= 5.08D-06
 ErrMax= 5.08D-06 EMaxC= 1.00D-01 BMatC= 9.24D-10 BMatP= 3.17D-08
 IDIUse=1 WtCom= 1.00D+00 WtEn= 0.00D+00
 Coeff-Com:  0.673D-04-0.240D-03-0.283D-02 0.713D-02-0.115D-01-0.522D-02
 Coeff-Com:  0.816D-01-0.331D+00 0.126D+01
 Coeff:      0.673D-04-0.240D-03-0.283D-02 0.713D-02-0.115D-01-0.522D-02
 Coeff:      0.816D-01-0.331D+00 0.126D+01
 Gap=     0.609 Goal=   None    Shift=    0.000
 Gap=     0.652 Goal=   None    Shift=    0.000
 RMSDP=1.18D-06 MaxDP=2.36D-05 DE=-3.42D-08 OVMax= 2.87D-05

 Cycle  10  Pass 1  IDiag  1:
 E= -40.6623202884642     Delta-E=       -0.000000000939 Rises=F Damp=F
 DIIS: error= 2.31D-06 at cycle  10 NSaved=  10.
 NSaved=10 IEnMin=10 EnMin= -40.6623202884642     IErMin=10 ErrMin= 2.31D-06
 ErrMax= 2.31D-06 EMaxC= 1.00D-01 BMatC= 2.19D-10 BMatP= 9.24D-10
 IDIUse=1 WtCom= 1.00D+00 WtEn= 0.00D+00
 Coeff-Com: -0.441D-04 0.159D-03 0.200D-02-0.497D-02 0.934D-02-0.292D-02
 Coeff-Com: -0.484D-01 0.257D+00-0.132D+01 0.211D+01
 Coeff:     -0.441D-04 0.159D-03 0.200D-02-0.497D-02 0.934D-02-0.292D-02
 Coeff:     -0.484D-01 0.257D+00-0.132D+01 0.211D+01
 Gap=     0.609 Goal=   None    Shift=    0.000
 Gap=     0.652 Goal=   None    Shift=    0.000
 RMSDP=9.94D-07 MaxDP=1.66D-05 DE=-9.39D-10 OVMax= 1.86D-05

 Cycle  11  Pass 1  IDiag  1:
 E= -40.6623202887760     Delta-E=       -0.000000000312 Rises=F Damp=F
 DIIS: error= 7.79D-07 at cycle  11 NSaved=  11.
 NSaved=11 IEnMin=11 EnMin= -40.6623202887760     IErMin=11 ErrMin= 7.79D-07
 ErrMax= 7.79D-07 EMaxC= 1.00D-01 BMatC= 1.73D-11 BMatP= 2.19D-10
 IDIUse=1 WtCom= 1.00D+00 WtEn= 0.00D+00
 Coeff-Com:  0.108D-04-0.413D-04-0.536D-03 0.127D-02-0.262D-02 0.128D-02
 Coeff-Com:  0.129D-01-0.824D-01 0.524D+00-0.114D+01 0.168D+01
 Coeff:      0.108D-04-0.413D-04-0.536D-03 0.127D-02-0.262D-02 0.128D-02
 Coeff:      0.129D-01-0.824D-01 0.524D+00-0.114D+01 0.168D+01
 Gap=     0.609 Goal=   None    Shift=    0.000
 Gap=     0.652 Goal=   None    Shift=    0.000
 RMSDP=3.27D-07 MaxDP=5.60D-06 DE=-3.12D-10 OVMax= 7.82D-06

 Cycle  12  Pass 1  IDiag  1:
 E= -40.6623202888024     Delta-E=       -0.000000000026 Rises=F Damp=F
 DIIS: error= 7.90D-08 at cycle  12 NSaved=  12.
 NSaved=12 IEnMin=12 EnMin= -40.6623202888024     IErMin=12 ErrMin= 7.90D-08
 ErrMax= 7.90D-08 EMaxC= 1.00D-01 BMatC= 2.79D-13 BMatP= 1.73D-11
 IDIUse=1 WtCom= 1.00D+00 WtEn= 0.00D+00
 Coeff-Com: -0.201D-05 0.780D-05 0.108D-03-0.240D-03 0.564D-03-0.533D-03
 Coeff-Com: -0.216D-02 0.177D-01-0.128D+00 0.304D+00-0.534D+00 0.134D+01
 Coeff:     -0.201D-05 0.780D-05 0.108D-03-0.240D-03 0.564D-03-0.533D-03
 Coeff:     -0.216D-02 0.177D-01-0.128D+00 0.304D+00-0.534D+00 0.134D+01
 Gap=     0.609 Goal=   None    Shift=    0.000
 Gap=     0.652 Goal=   None    Shift=    0.000
 RMSDP=1.94D-08 MaxDP=2.14D-07 DE=-2.63D-11 OVMax= 4.41D-07

 Cycle  13  Pass 1  IDiag  1:
 E= -40.6623202888027     Delta-E=        0.000000000000 Rises=F Damp=F
 DIIS: error= 2.28D-08 at cycle  13 NSaved=  13.
 NSaved=13 IEnMin=13 EnMin= -40.6623202888027     IErMin=13 ErrMin= 2.28D-08
 ErrMax= 2.28D-08 EMaxC= 1.00D-01 BMatC= 1.47D-14 BMatP= 2.79D-13
 IDIUse=1 WtCom= 1.00D+00 WtEn= 0.00D+00
 Coeff-Com:  0.308D-06-0.137D-05-0.190D-04 0.373D-04-0.107D-03 0.145D-03
 Coeff-Com:  0.285D-03-0.336D-02 0.270D-01-0.714D-01 0.135D+00-0.504D+00
 Coeff-Com:  0.142D+01
 Coeff:      0.308D-06-0.137D-05-0.190D-04 0.373D-04-0.107D-03 0.145D-03
 Coeff:      0.285D-03-0.336D-02 0.270D-01-0.714D-01 0.135D+00-0.504D+00
 Coeff:      0.142D+01
 Gap=     0.609 Goal=   None    Shift=    0.000
 Gap=     0.652 Goal=   None    Shift=    0.000
 RMSDP=5.32D-09 MaxDP=6.25D-08 DE=-3.27D-13 OVMax= 1.80D-07

 SCF Done:  E(UHF) =  -40.6623202888     A.U. after   13 cycles
             Convg  =    0.5319D-08             -V/T =  1.9995
             S**2   =   0.7857
 KE= 4.068415839037D+01 PE=-1.245544629908D+02 EE= 2.786309356604D+01
 Annihilation of the first spin contaminant:
 S**2 before annihilation     0.7857,   after     0.7504
 Leave Link  502 at Wed Apr 10 03:02:43 2013, MaxMem=    6291456 cpu:       0.1
 (Enter /soft/g03/g03/l801.exe)
 ExpMin= 1.61D-01 ExpMax= 3.05D+03 ExpMxC= 4.57D+02 IAcc=1 IRadAn=         1 AccDes= 1.00D-06
 HarFok:  IExCor= 205 AccDes= 1.00D-06 IRadAn=         1 IDoV=1
 ScaDFX=  1.000000  1.000000  1.000000  1.000000
 Largest valence mixing into a core orbital is  1.60D-04
 Largest core mixing into a valence orbital is  2.24D-05
 Largest valence mixing into a core orbital is  2.03D-04
 Largest core mixing into a valence orbital is  3.35D-05
 Range of M.O.s used for correlation:     2    40
 NBasis=    40 NAE=     6 NBE=     5 NFC=     1 NFV=     0
 NROrb=     39 NOA=     5 NOB=     4 NVA=    34 NVB=    35
 Leave Link  801 at Wed Apr 10 03:02:43 2013, MaxMem=    6291456 cpu:       0.0
 (Enter /soft/g03/g03/l906.exe)
 Frozen-core derivative calculation, NFC=   1 NFV=   0.
 FulOut=F Deriv=T AODrv=T NAtomX=     6
   MMem=           0  MDisk=           5 MDiskD=           5
  W3Min=       19200 MinDsk=      102260 NBas6D=          40
 NBas2D=         862    NTT=         820    LW2=     3000000
    MDV=     6280212 MDiskM=        2277 NBas2p=         862
 Disk-based method using ON**2 memory for  5 occupieds at a time.
 Permanent disk used for amplitudes=       50065 words.
 Estimated scratch disk usage=     1096240 words.
 IMap=   1   2   3   4   5   6
 Actual    scratch disk usage=     1096240 words.
 JobTyp=2 Pass  1:  I=   2 to   6 NPSUse=  1 ParTrn=F ParDer=F DoDerP=T.
 (rs|ai) integrals will be sorted in core.
 IMap=   1   2   3   4   5
 Actual    scratch disk usage=     1096240 words.
 JobTyp=3 Pass  1:  I=   2 to   5 NPSUse=  1 ParTrn=F ParDer=F DoDerP=T.
 (rs|ai) integrals will be sorted in core.
 Spin components of T(2) and E(2):
     alpha-alpha T2 =       0.6211673585D-02 E2=     -0.1898375228D-01
     alpha-beta  T2 =       0.4294524620D-01 E2=     -0.1360533057D+00
     beta-beta   T2 =       0.3535296887D-02 E2=     -0.1018294438D-01
 The integrals were generated   2 times.
 (S**2,0)=  0.78573D+00           (S**2,1)=  0.76260D+00
 E(PUHF)=      -0.40669465417D+02        E(PMP2)=      -0.40832386645D+02
 ANorm=    0.1026007903D+01
 E2 =    -0.1652200023D+00 EUMP2 =    -0.40827540291129D+02
 Leave Link  906 at Wed Apr 10 03:02:47 2013, MaxMem=    6291456 cpu:       4.0
 (Enter /soft/g03/g03/l1101.exe)
 Using compressed Sx but separate Hx and Fx, NAtomX=     6.
 Will process   7 centers per pass.
 Leave Link 1101 at Wed Apr 10 03:02:47 2013, MaxMem=    6291456 cpu:       0.1
 (Enter /soft/g03/g03/l1102.exe)
 Use density number 0.
 Leave Link 1102 at Wed Apr 10 03:02:47 2013, MaxMem=    6291456 cpu:       0.0
 (Enter /soft/g03/g03/l1110.exe)
 Forming Gx(P) for the SCF density, NAtomX=     6.
 Integral derivatives from FoFDir, PRISM(SPDF).
 Do as many integral derivatives as possible in FoFDir.
 G2DrvN: MDV=       6291406.
 G2DrvN: will do    7 centers at a time, making    1 passes doing MaxLOS=2.
 Symmetry not used in FoFDir.
 MinBra= 0 MaxBra= 2 Meth= 1.
 IRaf=       0 NMat=   1 IRICut=       1 DoRegI=T DoRafI=F ISym2E= 0 JSym2E=0.
 FoFDir/FoFCou used for L=0 through L=2.
 Leave Link 1110 at Wed Apr 10 03:02:48 2013, MaxMem=    6291456 cpu:       0.2
 (Enter /soft/g03/g03/l1002.exe)
 Minotr:  UHF wavefunction.
 DoAtom=TTTTTT
          Frozen-core window.
          Direct CPHF calculation.
          Solving linear equations simultaneously.
          Differentiating once with respect to electric field.
                with respect to dipole field.
          Differentiating once with respect to nuclear coordinates.
          Requested convergence is 1.0D-08 RMS, and 1.0D-07 maximum.
          Secondary convergence is 1.0D-12 RMS, and 1.0D-12 maximum.
          NewPWx=T KeepS1=T KeepF1=T KeepIn=T MapXYZ=F.
          MDV=       6291400 using IRadAn=       2.
          Store integrals in memory, NReq=     1493710.
 Symmetry not used in FoFDir.
 MinBra= 0 MaxBra= 2 Meth= 1.
 IRaf=       0 NMat=   1 IRICut=       1 DoRegI=T DoRafI=F ISym2E= 0 JSym2E=0.
          There are  21 degrees of freedom in the 1st order CPHF.
    18 vectors were produced by pass  0.
 AX will form  18 AO Fock derivatives at one time.
    18 vectors were produced by pass  1.
    18 vectors were produced by pass  2.
    18 vectors were produced by pass  3.
    18 vectors were produced by pass  4.
    18 vectors were produced by pass  5.
    13 vectors were produced by pass  6.
     3 vectors were produced by pass  7.
     1 vectors were produced by pass  8.
 Inv2:  IOpt= 1 Iter= 1 AM= 1.89D-15 Conv= 1.00D-12.
 Inverted reduced A of dimension  125 with in-core refinement.
 Saving first derivative matrices.
 End of Minotr Frequency-dependent properties file   721 does not exist.
 Leave Link 1002 at Wed Apr 10 03:02:48 2013, MaxMem=    6291456 cpu:       0.2
 (Enter /soft/g03/g03/l811.exe)
 MDV=     6291456.
 Form MO integral derivatives with frozen-active canonical formalism.
 MOERI=1 MOERIx=1 NAtoms=     6 NAtomA=     6 NAtomX=     6.
 Discarding MO integrals.
 MO basis two electron integral derivatives will not be stored on disk.
 IAlg= 3 DoFC=T DoPWx=T Debug=F.
 Frozen-core window:  NFC=   1 NFV=   0.
             Reordered first order wavefunction length =       207461
 In DefCFB: NBatch=  1, ICI=  6, ICA= 35, LFMax= 12
             Large arrays: LIAPS=     2425600, LIARS=     1764000 words.
  In StABat: MaxSiz= 15 MinSiz= 10 NAtomB=  3
 DoIAMN:  NPSUse=  1.
 In DefCFB: NBatch=  1, ICI=  6, ICA= 35, LFMax= 12
             Large arrays: LIAPS=     2425600, LIARS=     1764000 words.
  In StABat: MaxSiz= 15 MinSiz= 10 NAtomB=  3
 Leave Link  811 at Wed Apr 10 03:02:50 2013, MaxMem=    6291456 cpu:       1.8
 (Enter /soft/g03/g03/l804.exe)
 Frozen-core window:  NFC=   1 NFV=   0.
 Open-shell transformation, MDV=     6291456 ITran=4 ISComp=1.
 Compute canonical integrals, LenV=     5604917.
 Symmetry not used in FoFDir.
 MinBra= 0 MaxBra= 2 Meth= 1.
 IRaf=       0 NMat=   1 IRICut=       1 DoRegI=T DoRafI=F ISym2E= 0 JSym2E=0.
 Compute canonical integrals, LenV=     5604917.
 SymMOI:  orbitals are not symmetric.
 Spin components of T(2) and E(2):
     alpha-alpha T2 =       0.6211673585D-02 E2=     -0.1898375228D-01
     alpha-beta  T2 =       0.4294524620D-01 E2=     -0.1360533057D+00
     beta-beta   T2 =       0.3535296887D-02 E2=     -0.1018294438D-01
 ANorm=    0.1450994291D+01
 E2=       -0.1652200023D+00 EUMP2=       -0.40827540291129D+02
 (S**2,0)=  0.78573D+00           (S**2,1)=  0.76260D+00
 E(PUHF)=      -0.40669465417D+02        E(PMP2)=      -0.40832386645D+02
 Leave Link  804 at Wed Apr 10 03:02:50 2013, MaxMem=    6291456 cpu:       0.2
 (Enter /soft/g03/g03/l1002.exe)
 Minotr:  UHF wavefunction.
          Computing MP2 derivatives.
          Using Z-Vector for PSCF gradient.
          Skipping F1 and S1 gradient terms here.
 DoAtom=TTTTTT
          Frozen-core window.
          Using MO integrals in the linear equations.
          Forming densities via direct SCF.
          Solving linear equations simultaneously.
          Differentiating once with respect to electric field.
                with respect to dipole field.
          Differentiating once with respect to nuclear coordinates.
          Requested convergence is 1.0D-10 RMS, and 1.0D-09 maximum.
          Secondary convergence is 1.0D-12 RMS, and 1.0D-12 maximum.
          NewPWx=F KeepS1=T KeepF1=T KeepIn=T MapXYZ=F.
          MDV=       6291400 using IRadAn=       0.
          There are   1 degrees of freedom in the 1st order CPHF.
 Petite list used in FoFDir.
 MinBra= 0 MaxBra= 2 Meth= 1.
 IRaf=       0 NMat=   1 IRICut=       1 DoRegI=T DoRafI=F ISym2E= 1 JSym2E=1.
     1 vectors were produced by pass  0.
     1 vectors were produced by pass  1.
     1 vectors were produced by pass  2.
     1 vectors were produced by pass  3.
     1 vectors were produced by pass  4.
     1 vectors were produced by pass  5.
     1 vectors were produced by pass  6.
     1 vectors were produced by pass  7.
     1 vectors were produced by pass  8.
     1 vectors were produced by pass  9.
     1 vectors were produced by pass 10.
 Inv2:  IOpt= 1 Iter= 1 AM= 3.37D-16 Conv= 1.00D-12.
 Inverted reduced A of dimension   11 with in-core refinement.
 End of Minotr Frequency-dependent properties file   721 does not exist.
 Leave Link 1002 at Wed Apr 10 03:02:50 2013, MaxMem=    6291456 cpu:       0.1
 (Enter /soft/g03/g03/l1102.exe)
 Use density number 2.
 Symmetrizing basis deriv contribution to polar:
 IMax=3 JMax=2 DiffMx= 0.00D+00
 Leave Link 1102 at Wed Apr 10 03:02:50 2013, MaxMem=    6291456 cpu:       0.0
 (Enter /soft/g03/g03/l1110.exe)
 Forming Gx(P) for generalized density number  2 NAtomX=     6.
 Integral derivatives from FoFDir, PRISM(SPDF).
 Do as many integral derivatives as possible in FoFDir.
 G2DrvN: MDV=       6291406.
 G2DrvN: will do    7 centers at a time, making    1 passes doing MaxLOS=2.
 Symmetry not used in FoFDir.
 MinBra= 0 MaxBra= 2 Meth= 1.
 IRaf=       0 NMat=   1 IRICut=       1 DoRegI=T DoRafI=F ISym2E= 0 JSym2E=0.
 FoFDir/FoFCou used for L=0 through L=2.
 Leave Link 1110 at Wed Apr 10 03:02:50 2013, MaxMem=    6291456 cpu:       0.2
 (Enter /soft/g03/g03/l1112.exe)
 MP22nd: MDV=       6291456
 This link is doing NAtomX=     6 total of    21 degrees of freedom.
 Using ON3 I/O method in MakUI.
 Frozen-core window:  NFC=   1 NFV=   0.
 Using Ix for Sx.
 Use MO integrals over full window.
 Using OV2 memory method for fx*t*t/D, MaxI=  6 Force3=T.
 R2 and R3 integrals will be kept in memory, NReq=     1493220.
 Symmetry not used in FoFDir.
 MinBra= 0 MaxBra= 2 Meth= 1.
 IRaf=       0 NMat=   1 IRICut=       1 DoRegI=T DoRafI=F ISym2E= 0 JSym2E=0.
 DD1Dir will call FoFMem   1 times, MxPair=        86
 NAB=    30 NAA=    15 NBB=    10.
 Symmetry is being used.
 Discarding MO integrals.
 Leave Link 1112 at Wed Apr 10 03:02:51 2013, MaxMem=    6291456 cpu:       0.8
 (Enter /soft/g03/g03/l601.exe)
 Copying SCF densities to generalized density rwf, ISCF=1 IROHF=0.

 **********************************************************************

            Population analysis using the SCF density.

 **********************************************************************

 Orbital symmetries:
 Alpha Orbitals:
       Occupied  (A) (A) (A) (A) (A) (A)
       Virtual   (A) (A) (A) (A) (A) (A) (A) (A) (A) (A) (A) (A)
                 (A) (A) (A) (A) (A) (A) (A) (A) (A) (A) (A) (A)
                 (A) (A) (A) (A) (A) (A) (A) (A) (A) (A)
 Beta  Orbitals:
       Occupied  (A) (A) (A) (A) (A)
       Virtual   (A) (A) (A) (A) (A) (A) (A) (A) (A) (A) (A) (A)
                 (A) (A) (A) (A) (A) (A) (A) (A) (A) (A) (A) (A)
                 (A) (A) (A) (A) (A) (A) (A) (A) (A) (A) (A)
 The electronic state is 2-A.
 Alpha  occ. eigenvalues --  -11.24153  -0.97111  -0.62829  -0.57806  -0.57806
 Alpha  occ. eigenvalues --   -0.35430
 Alpha virt. eigenvalues --    0.25451   0.31611   0.31611   0.35209   0.71168
 Alpha virt. eigenvalues --    0.71168   0.74780   0.89857   1.13743   1.13743
 Alpha virt. eigenvalues --    1.17246   1.22276   1.41222   1.62345   1.62345
 Alpha virt. eigenvalues --    2.03229   2.03229   2.10217   2.30552   2.30552
 Alpha virt. eigenvalues --    2.31685   2.61740   2.61740   2.81668   2.89641
 Alpha virt. eigenvalues --    2.97125   2.97125   3.15793   3.15793   3.57003
 Alpha virt. eigenvalues --    3.80023   3.80023   4.27771   4.92233
  Beta  occ. eigenvalues --  -11.22070  -0.90281  -0.56499  -0.56499  -0.53928
  Beta virt. eigenvalues --    0.11265   0.26775   0.32711   0.32711   0.40278
  Beta virt. eigenvalues --    0.71687   0.71687   0.84905   0.95395   1.14964
  Beta virt. eigenvalues --    1.14964   1.19301   1.24545   1.44029   1.66510
  Beta virt. eigenvalues --    1.66510   2.05940   2.05940   2.15710   2.31346
  Beta virt. eigenvalues --    2.31621   2.31621   2.64429   2.64429   2.82319
  Beta virt. eigenvalues --    2.93668   2.98221   2.98222   3.16866   3.16866
  Beta virt. eigenvalues --    3.57878   3.80878   3.80878   4.30779   4.94476
     Alpha Molecular Orbital Coefficients
                           1         2         3         4         5
                        (A)--O    (A)--O    (A)--O    (A)--O    (A)--O
     EIGENVALUES --   -11.24153  -0.97111  -0.62829  -0.57806  -0.57806
   1 1   C  1S          0.99545  -0.19901   0.02730   0.00000   0.00000
   2        2S          0.02971   0.38562  -0.04296   0.00000   0.00000
   3        2PX         0.00013   0.01108   0.15858   0.05065   0.37164
   4        2PY         0.00010   0.00845   0.12089   0.36835  -0.17403
   5        2PZ         0.00017   0.01466   0.20974  -0.25060  -0.18069
   6        3S         -0.01342   0.39206  -0.05923   0.00000   0.00000
   7        3PX        -0.00047   0.00332   0.08264   0.02456   0.18023
   8        3PY        -0.00036   0.00253   0.06300   0.17864  -0.08440
   9        3PZ        -0.00062   0.00439   0.10930  -0.12153  -0.08763
  10        4XX        -0.00217  -0.00036   0.00077  -0.01358   0.00156
  11        4YY        -0.00221  -0.00162  -0.00295   0.01257   0.00233
  12        4ZZ        -0.00208   0.00188   0.00741   0.00101  -0.00389
  13        4XY         0.00010   0.00263   0.00781  -0.01112  -0.01977
  14        4XZ         0.00017   0.00457   0.01355   0.01675  -0.00109
  15        4YZ         0.00013   0.00348   0.01033  -0.01098   0.01861
  16 2   H  1S          0.00000   0.13591  -0.06614  -0.06022   0.26671
  17        2S          0.00237   0.03424  -0.04770  -0.04740   0.20994
  18        3PX         0.00014  -0.00873   0.00615   0.00349  -0.00710
  19        3PY        -0.00010   0.00844  -0.00105   0.00255   0.00909
  20        3PZ        -0.00005   0.00550   0.00165  -0.00516   0.00480
  21 3   H  1S          0.00000   0.13591  -0.06614   0.26108  -0.08120
  22        2S          0.00237   0.03424  -0.04770   0.20552  -0.06392
  23        3PX        -0.00003   0.00330   0.00157   0.00497   0.00388
  24        3PY         0.00016  -0.01060   0.00618  -0.00937   0.00208
  25        3PZ        -0.00008   0.00738   0.00093   0.00622  -0.00555
  26 4   H  1S          0.00000   0.13591  -0.06615  -0.20086  -0.18550
  27        2S          0.00237   0.03424  -0.04770  -0.15811  -0.14602
  28        3PX        -0.00012   0.00992  -0.00094  -0.00947  -0.00420
  29        3PY        -0.00006   0.00558   0.00003  -0.00054  -0.00770
  30        3PZ         0.00012  -0.00695   0.00638   0.00395   0.00436
  31 5   H  1S          0.00010   0.08537   0.24829   0.00000   0.00000
  32        2S          0.00388   0.02282   0.17443   0.00000   0.00000
  33        3PX         0.00024  -0.00550   0.00201   0.00052   0.00380
  34        3PY         0.00018  -0.00419   0.00153   0.00376  -0.00178
  35        3PZ         0.00032  -0.00728   0.00266  -0.00256  -0.00185
  36 6   H  1S         -0.00040   0.03947   0.27434   0.00000   0.00000
  37        2S         -0.00144   0.01979   0.27213   0.00000   0.00000
  38        3PX         0.00017  -0.00229  -0.00676   0.00008   0.00060
  39        3PY         0.00013  -0.00175  -0.00515   0.00059  -0.00028
  40        3PZ         0.00022  -0.00303  -0.00894  -0.00040  -0.00029
                           6         7         8         9        10
                        (A)--O    (A)--V    (A)--V    (A)--V    (A)--V
     EIGENVALUES --    -0.35430   0.25451   0.31611   0.31611   0.35209
   1 1   C  1S          0.04379  -0.14303   0.00000   0.00000   0.05431
   2        2S         -0.09426   0.10919   0.00000   0.00000  -0.04943
   3        2PX        -0.26201  -0.06645   0.25133   0.05740  -0.08993
   4        2PY        -0.19973  -0.05066  -0.02276  -0.27909  -0.06855
   5        2PZ        -0.34654  -0.08789  -0.17691   0.11745  -0.11894
   6        3S         -0.27199   2.53305   0.00000   0.00000  -0.90451
   7        3PX        -0.22363  -0.20671   1.25047   0.28561  -0.62977
   8        3PY        -0.17047  -0.15758  -0.11322  -1.38860  -0.48006
   9        3PZ        -0.29577  -0.27340  -0.88021   0.58438  -0.83293
  10        4XX         0.00150  -0.01115   0.00435  -0.00412   0.00642
  11        4YY         0.00439  -0.01302  -0.00263   0.00133  -0.00030
  12        4ZZ        -0.00368  -0.00780  -0.00172   0.00278   0.01843
  13        4XY        -0.00608   0.00393   0.00939  -0.00295   0.01411
  14        4XZ        -0.01055   0.00682  -0.00066   0.00725   0.02448
  15        4YZ        -0.00804   0.00520  -0.00613  -0.00815   0.01866
  16 2   H  1S          0.03962  -0.01968  -0.05660  -0.03725  -0.06256
  17        2S          0.07173  -1.19207  -1.63088  -1.07335  -0.09526
  18        3PX        -0.00688  -0.00167   0.00718   0.00180  -0.00141
  19        3PY        -0.00215  -0.00255   0.00003  -0.00713  -0.00153
  20        3PZ        -0.00560  -0.00365  -0.00389   0.00378  -0.00238
  21 3   H  1S          0.03962  -0.01968  -0.00396   0.06764  -0.06256
  22        2S          0.07173  -1.19207  -0.11411   1.94906  -0.09527
  23        3PX        -0.00441  -0.00269   0.00686   0.00076  -0.00177
  24        3PY        -0.00605  -0.00093  -0.00060  -0.00778  -0.00096
  25        3PZ        -0.00522  -0.00381  -0.00473   0.00205  -0.00244
  26 4   H  1S          0.03962  -0.01968   0.06056  -0.03039  -0.06256
  27        2S          0.07173  -1.19207   1.74499  -0.87571  -0.09526
  28        3PX        -0.00306  -0.00325   0.00593   0.00200  -0.00197
  29        3PY        -0.00274  -0.00231  -0.00124  -0.00725  -0.00144
  30        3PZ        -0.00815  -0.00259  -0.00543   0.00350  -0.00201
  31 5   H  1S          0.00390   0.03379   0.00000   0.00000   0.25612
  32        2S         -0.00027  -0.29198   0.00000   0.00001   2.89651
  33        3PX         0.01671   0.00068   0.00374   0.00085  -0.00107
  34        3PY         0.01274   0.00052  -0.00034  -0.00415  -0.00082
  35        3PZ         0.02211   0.00090  -0.00263   0.00175  -0.00141
  36 6   H  1S          0.27944   0.03791   0.00000   0.00000   0.03549
  37        2S          0.52399   0.17330   0.00000  -0.00001  -1.98114
  38        3PX        -0.00106  -0.00129   0.00426   0.00097  -0.00809
  39        3PY        -0.00081  -0.00098  -0.00039  -0.00473  -0.00616
  40        3PZ        -0.00141  -0.00170  -0.00300   0.00199  -0.01069
                          11        12        13        14        15
                        (A)--V    (A)--V    (A)--V    (A)--V    (A)--V
     EIGENVALUES --     0.71168   0.71168   0.74780   0.89857   1.13743
   1 1   C  1S          0.00000   0.00000   0.01901   0.02675   0.00000
   2        2S          0.00000   0.00000   0.01732   0.15208   0.00000
   3        2PX         0.48414   0.35298  -0.52253   0.12036   0.66426
   4        2PY         0.20722  -0.61691  -0.39832   0.09175  -0.18034
   5        2PZ        -0.48549   0.08868  -0.69109   0.15919  -0.39830
   6        3S          0.00000   0.00000  -0.26235  -0.36623   0.00000
   7        3PX        -0.99691  -0.72684   0.74844   0.09712  -1.08288
   8        3PY        -0.42671   1.27031   0.57053   0.07403   0.29399
   9        3PZ         0.99970  -0.18260   0.98987   0.12846   0.64931
  10        4XX        -0.02729   0.02499   0.00670   0.03590   0.03648
  11        4YY         0.02584  -0.01461   0.02164   0.04715  -0.05151
  12        4ZZ         0.00145  -0.01037  -0.02003   0.01577   0.01503
  13        4XY        -0.06193  -0.01288  -0.03140  -0.02365   0.22045
  14        4XZ         0.02773  -0.03757  -0.05448  -0.04102  -0.00956
  15        4YZ         0.01602   0.05997  -0.04153  -0.03127  -0.17294
  16 2   H  1S          0.27024   0.40952   0.20538   0.22838  -0.70650
  17        2S          0.13431   0.20353   0.07477   0.08390   1.47333
  18        3PX        -0.02174  -0.02142  -0.00438   0.02084  -0.05774
  19        3PY         0.00069   0.02922   0.00216  -0.01333   0.10145
  20        3PZ         0.01928   0.00427   0.00041  -0.00543   0.04641
  21 3   H  1S          0.21954  -0.43879   0.20537   0.22838   0.08647
  22        2S          0.10911  -0.21808   0.07477   0.08390  -0.18031
  23        3PX        -0.01241  -0.01517   0.00000  -0.00244   0.04903
  24        3PY        -0.01329   0.03269  -0.00478   0.02352   0.00206
  25        3PZ         0.01967  -0.01263   0.00110  -0.00907  -0.04576
  26 4   H  1S         -0.48977   0.02927   0.20538   0.22837   0.62004
  27        2S         -0.24342   0.01455   0.07478   0.08390  -1.29302
  28        3PX        -0.02948  -0.00980   0.00241  -0.01525  -0.06540
  29        3PY        -0.01464   0.01917   0.00111  -0.00779  -0.08339
  30        3PZ         0.02486  -0.00329  -0.00412   0.01866   0.04378
  31 5   H  1S         -0.00001   0.00000  -0.08369   0.42968   0.00000
  32        2S          0.00000   0.00000  -0.23003  -0.65024   0.00000
  33        3PX        -0.02206  -0.01608   0.05260   0.04739   0.02044
  34        3PY        -0.00944   0.02811   0.04009   0.03613  -0.00555
  35        3PZ         0.02212  -0.00404   0.06956   0.06268  -0.01226
  36 6   H  1S          0.00000   0.00000   0.03017   0.97364   0.00000
  37        2S          0.00001   0.00000  -0.21296  -0.70527   0.00000
  38        3PX        -0.01725  -0.01258  -0.00217  -0.00491  -0.01148
  39        3PY        -0.00738   0.02198  -0.00165  -0.00375   0.00312
  40        3PZ         0.01730  -0.00316  -0.00287  -0.00650   0.00689
                          16        17        18        19        20
                        (A)--V    (A)--V    (A)--V    (A)--V    (A)--V
     EIGENVALUES --     1.13743   1.17246   1.22276   1.41222   1.62345
   1 1   C  1S          0.00000   0.04902  -0.01117  -0.12653   0.00000
   2        2S          0.00000  -1.26396   0.26208  -1.84502   0.00001
   3        2PX        -0.03567   0.16950   0.13722  -0.14674  -0.01891
   4        2PY         0.69967   0.12920   0.10460  -0.11186   0.02943
   5        2PZ        -0.37628   0.22418   0.18149  -0.19408  -0.00266
   6        3S          0.00001   2.57548  -0.83724   5.07814  -0.00002
   7        3PX         0.05816  -0.34024  -0.52774   0.50293   0.01206
   8        3PY        -1.14061  -0.25936  -0.40229   0.38337  -0.01877
   9        3PZ         0.61343  -0.45001  -0.69800   0.66518   0.00169
  10        4XX         0.13355  -0.01479  -0.00841  -0.11432  -0.49879
  11        4YY        -0.09670   0.01650   0.02744  -0.12139   0.52536
  12        4ZZ        -0.03684  -0.07074  -0.07253  -0.10168  -0.02657
  13        4XY         0.08675  -0.06573  -0.07533   0.01485   0.25899
  14        4XZ        -0.17461  -0.11405  -0.13070   0.02577  -0.17036
  15        4YZ         0.15608  -0.08694  -0.09963   0.01965   0.16510
  16 2   H  1S          0.30806   0.51650   0.02125  -0.43137   0.02297
  17        2S         -0.64243  -1.05424  -0.21516  -0.67549  -0.02292
  18        3PX         0.04619   0.06982   0.02600   0.00618  -0.20152
  19        3PY         0.00716  -0.05437   0.02119   0.00957  -0.14292
  20        3PZ        -0.06575  -0.02916   0.03593   0.01366  -0.09994
  21 3   H  1S         -0.76588   0.51650   0.02125  -0.43137  -0.02269
  22        2S          1.59715  -1.05424  -0.21516  -0.67548   0.02265
  23        3PX         0.04962  -0.01592   0.02709   0.01005   0.20816
  24        3PY        -0.09255   0.08135   0.01946   0.00344   0.13253
  25        3PZ         0.08220  -0.04255   0.03610   0.01426   0.09687
  26 4   H  1S          0.45782   0.51650   0.02125  -0.43136  -0.00028
  27        2S         -0.95474  -1.05423  -0.21516  -0.67549   0.00028
  28        3PX        -0.09183  -0.06308   0.02769   0.01218   0.10741
  29        3PY         0.00734  -0.03397   0.02093   0.00865  -0.16710
  30        3PZ         0.02553   0.05957   0.03480   0.00965   0.01913
  31 5   H  1S          0.00000  -0.04800  -1.19140  -0.01793   0.00000
  32        2S          0.00000   0.33355   3.21891  -2.44617   0.00002
  33        3PX        -0.00110   0.00671   0.07553   0.05754  -0.13097
  34        3PY         0.02153   0.00512   0.05757   0.04386   0.20383
  35        3PZ        -0.01158   0.00888   0.09989   0.07609  -0.01845
  36 6   H  1S          0.00000  -0.32161   0.46234   0.44757   0.00000
  37        2S          0.00000   0.12582  -1.75108   0.60818  -0.00001
  38        3PX         0.00062  -0.01094   0.08327   0.04530  -0.04906
  39        3PY        -0.01209  -0.00834   0.06348   0.03453   0.07636
  40        3PZ         0.00651  -0.01446   0.11013   0.05991  -0.00691
                          21        22        23        24        25
                        (A)--V    (A)--V    (A)--V    (A)--V    (A)--V
     EIGENVALUES --     1.62345   2.03229   2.03229   2.10217   2.30552
   1 1   C  1S          0.00000   0.00000   0.00000  -0.05737   0.00000
   2        2S         -0.00001   0.00001   0.00001   0.05119   0.00000
   3        2PX        -0.02244  -0.03659   0.06650   0.07189  -0.03925
   4        2PY        -0.01224   0.08084   0.01615   0.05480  -0.05649
   5        2PZ         0.02402  -0.01893  -0.05959   0.09508   0.06223
   6        3S          0.00003  -0.00003  -0.00005   0.58684   0.00000
   7        3PX         0.01432   0.08625  -0.15676  -0.13504   0.29066
   8        3PY         0.00782  -0.19057  -0.03807  -0.10294   0.41831
   9        3PZ        -0.01532   0.04461   0.14045  -0.17860  -0.46086
  10        4XX        -0.33488   0.05445  -0.12871  -0.05753  -0.27427
  11        4YY        -0.31673  -0.10349  -0.01267   0.06848   0.23678
  12        4ZZ         0.65161   0.04904   0.14138  -0.28292   0.03750
  13        4XY        -0.07478  -0.05287  -0.09415  -0.26479  -0.40536
  14        4XZ        -0.20637   0.08585  -0.02036  -0.45941   0.31958
  15        4YZ        -0.02830  -0.11850   0.03421  -0.35020  -0.07202
  16 2   H  1S          0.01294   0.04404  -0.03786  -0.27811  -0.09590
  17        2S         -0.01292  -0.12163   0.10459  -0.01022  -0.01162
  18        3PX        -0.04649   0.13313  -0.14039   0.03001  -0.16156
  19        3PY         0.08344   0.00685  -0.06926   0.10281  -0.23351
  20        3PZ        -0.20150   0.13824  -0.06277   0.12996   0.22383
  21 3   H  1S          0.01342  -0.05480  -0.01919  -0.27811  -0.42777
  22        2S         -0.01339   0.15139   0.05304  -0.01022  -0.05181
  23        3PX         0.06815  -0.09087  -0.09050   0.09371  -0.21497
  24        3PY        -0.10775  -0.16505  -0.04882   0.00198  -0.24129
  25        3PZ        -0.18499  -0.13844  -0.00934   0.13991   0.15483
  26 4   H  1S         -0.02636   0.01078   0.05708  -0.27811   0.52367
  27        2S          0.02631  -0.02976  -0.15763  -0.01022   0.06342
  28        3PX         0.11369   0.04872   0.06554   0.12875  -0.06113
  29        3PY         0.09816  -0.04283   0.07792   0.08766  -0.15506
  30        3PZ         0.24159   0.04726   0.22026   0.06405   0.31528
  31 5   H  1S          0.00001  -0.00001  -0.00001   0.30639   0.00000
  32        2S         -0.00003   0.00003   0.00005  -0.50148   0.00001
  33        3PX        -0.15543  -0.21280   0.38669   0.16342  -0.04210
  34        3PY        -0.08481   0.47012   0.09390   0.12458  -0.06058
  35        3PZ         0.16640  -0.11007  -0.34651   0.21613   0.06674
  36 6   H  1S          0.00000   0.00000   0.00000  -0.37649   0.00000
  37        2S          0.00002  -0.00001  -0.00002   0.47905  -0.00001
  38        3PX        -0.05823  -0.26308   0.47807  -0.16450  -0.09770
  39        3PY        -0.03177   0.58121   0.11609  -0.12539  -0.14061
  40        3PZ         0.06234  -0.13608  -0.42838  -0.21757   0.15492
                          26        27        28        29        30
                        (A)--V    (A)--V    (A)--V    (A)--V    (A)--V
     EIGENVALUES --     2.30552   2.31685   2.61740   2.61740   2.81668
   1 1   C  1S          0.00000   0.00000   0.00000   0.00000   0.01863
   2        2S          0.00000   0.00000   0.00000   0.00000   0.20623
   3        2PX         0.06693   0.00000   0.08010   0.06123  -0.06056
   4        2PY        -0.06255   0.00000   0.03721  -0.10300  -0.04616
   5        2PZ        -0.01456   0.00000  -0.08201   0.01307  -0.08009
   6        3S          0.00000   0.00000   0.00000   0.00000  -0.49354
   7        3PX        -0.49567   0.00001   0.00426   0.00326  -0.36430
   8        3PY         0.46319   0.00000   0.00198  -0.00548  -0.27770
   9        3PZ         0.10780  -0.00001  -0.00436   0.00069  -0.48182
  10        4XX        -0.09991   0.00000   0.28651   0.08535   0.00074
  11        4YY         0.02783   0.00000  -0.00401  -0.15985  -0.06605
  12        4ZZ         0.07208   0.00000  -0.28250   0.07450   0.12021
  13        4XY         0.28958  -0.00001   0.32559  -0.04142   0.14035
  14        4XZ         0.18212   0.00000  -0.04829   0.24707   0.24351
  15        4YZ        -0.48211   0.00000  -0.06257  -0.36311   0.18563
  16 2   H  1S          0.54931  -0.00001   0.09830   0.15656   0.07102
  17        2S          0.06653   0.00000  -0.09238  -0.14712  -0.05733
  18        3PX         0.30968  -0.16997  -0.19621  -0.20828   0.48569
  19        3PY        -0.16816  -0.41564  -0.25737  -0.15506   0.13798
  20        3PZ         0.05126   0.36807  -0.12834  -0.43007   0.38009
  21 3   H  1S         -0.35771  -0.00001   0.08643  -0.16341   0.07102
  22        2S         -0.04332   0.00000  -0.08123   0.15356  -0.05733
  23        3PX         0.20928   0.47900  -0.28949   0.21330   0.30060
  24        3PY        -0.26149  -0.07353  -0.07224   0.18786   0.43095
  25        3PZ        -0.13026  -0.31978  -0.11320   0.43700   0.35118
  26 4   H  1S         -0.19161   0.00001  -0.18473   0.00685   0.07102
  27        2S         -0.02321   0.00000   0.17360  -0.00644  -0.05733
  28        3PX         0.22739  -0.30904   0.34368  -0.11357   0.19881
  29        3PY        -0.26780   0.48916   0.26364   0.14982   0.18201
  30        3PZ        -0.08333  -0.04827   0.38695  -0.03010   0.57162
  31 5   H  1S          0.00000   0.00000  -0.00001   0.00000   0.02395
  32        2S          0.00000   0.00000   0.00000   0.00000   0.67102
  33        3PX         0.07179   0.00000   0.26650   0.20370  -0.04452
  34        3PY        -0.06708   0.00000   0.12380  -0.34266  -0.03393
  35        3PZ        -0.01561   0.00000  -0.27286   0.04348  -0.05887
  36 6   H  1S          0.00000   0.00000   0.00000   0.00000  -0.02615
  37        2S          0.00000   0.00000   0.00000   0.00000  -0.19874
  38        3PX         0.16662   0.00000  -0.34895  -0.26671   0.00360
  39        3PY        -0.15570   0.00000  -0.16210   0.44867   0.00274
  40        3PZ        -0.03624   0.00000   0.35727  -0.05694   0.00475
                          31        32        33        34        35
                        (A)--V    (A)--V    (A)--V    (A)--V    (A)--V
     EIGENVALUES --     2.89641   2.97125   2.97125   3.15793   3.15793
   1 1   C  1S         -0.06406   0.00000  -0.00001   0.00000   0.00000
   2        2S         -0.08653   0.00000   0.00000   0.00000   0.00000
   3        2PX         0.01993  -0.06034   0.03594   0.14948   0.07449
   4        2PY         0.01519   0.05696   0.05075   0.02825  -0.17919
   5        2PZ         0.02636   0.01279  -0.05642  -0.12931   0.04696
   6        3S          1.22273  -0.00001   0.00009  -0.00002   0.00001
   7        3PX         0.30448  -0.38222   0.22766   0.23466   0.11694
   8        3PY         0.23210   0.36080   0.32143   0.04435  -0.28130
   9        3PZ         0.40275   0.08103  -0.35734  -0.20299   0.07372
  10        4XX        -0.03736  -0.09451   0.19989  -0.44280  -0.51499
  11        4YY        -0.13304   0.08683  -0.01305  -0.25492   0.69152
  12        4ZZ         0.13381   0.00768  -0.18684   0.69772  -0.17653
  13        4XY         0.20103  -0.10875   0.27839   0.12522   0.30457
  14        4XZ         0.34883  -0.16783  -0.14851  -0.31366  -0.03891
  15        4YZ         0.26590   0.31991   0.06144  -0.04373   0.06240
  16 2   H  1S         -0.00318  -0.03028   0.00550  -0.01225  -0.01312
  17        2S         -0.17953   0.39582  -0.07189  -0.20264  -0.21710
  18        3PX         0.06472   0.08888  -0.14773   0.16628   0.46053
  19        3PY        -0.13418   0.09957  -0.33990  -0.35581   0.30936
  20        3PZ        -0.12167   0.27814   0.23446   0.43405  -0.14651
  21 3   H  1S         -0.00318   0.01990   0.02347  -0.00524   0.01717
  22        2S         -0.17952  -0.26016  -0.30686  -0.08669   0.28404
  23        3PX        -0.08151   0.16765  -0.36653  -0.47168  -0.31483
  24        3PY         0.09730  -0.08669  -0.01563   0.20734  -0.39378
  25        3PZ        -0.14450  -0.34149  -0.02608   0.38887  -0.03217
  26 4   H  1S         -0.00318   0.01038  -0.02897   0.01749  -0.00405
  27        2S         -0.17956  -0.13566   0.37872   0.28934  -0.06695
  28        3PX        -0.16199   0.15329   0.27017  -0.08458  -0.34003
  29        3PY        -0.09940  -0.39973   0.01089   0.07476   0.55191
  30        3PZ         0.02966  -0.02354   0.17478  -0.48558   0.05617
  31 5   H  1S         -0.55774   0.00000  -0.00003   0.00000   0.00000
  32        2S         -1.05800   0.00001  -0.00008   0.00001  -0.00001
  33        3PX         0.20897   0.53032  -0.31583   0.16809   0.08377
  34        3PY         0.15930  -0.50061  -0.44594   0.03177  -0.20151
  35        3PZ         0.27633  -0.11244   0.49586  -0.14541   0.05281
  36 6   H  1S         -0.03672   0.00000   0.00000   0.00000   0.00000
  37        2S          0.64137   0.00000   0.00004  -0.00001   0.00000
  38        3PX        -0.41271  -0.36833   0.21934  -0.12060  -0.06010
  39        3PY        -0.31461   0.34770   0.30972  -0.02279   0.14457
  40        3PZ        -0.54580   0.07810  -0.34443   0.10433  -0.03789
                          36        37        38        39        40
                        (A)--V    (A)--V    (A)--V    (A)--V    (A)--V
     EIGENVALUES --     3.57003   3.80023   3.80023   4.27771   4.92233
   1 1   C  1S         -0.13129   0.00000   0.00000  -0.15949  -0.45312
   2        2S          1.06407   0.00000   0.00000   0.81374   2.64139
   3        2PX        -0.14774  -0.54721   0.61132   0.15999   0.00307
   4        2PY        -0.11262  -0.45417  -0.76674   0.12196   0.00234
   5        2PZ        -0.19540   0.67550  -0.02029   0.21160   0.00406
   6        3S          0.83302   0.00000   0.00000   0.55411   2.22505
   7        3PX        -0.12666  -0.26935   0.30091   0.11775   0.10987
   8        3PY        -0.09655  -0.22355  -0.37741   0.08976   0.08375
   9        3PZ        -0.16752   0.33250  -0.00999   0.15573   0.14531
  10        4XX        -0.10685   0.45980   0.37074  -0.68865  -1.92152
  11        4YY         0.00955  -0.49811  -0.20778  -0.80807  -1.93823
  12        4ZZ        -0.31504   0.03831  -0.16296  -0.47506  -1.89162
  13        4XY        -0.24458   0.88669  -0.43423   0.25092   0.03512
  14        4XZ        -0.42435  -0.57184  -0.45395   0.43535   0.06093
  15        4YZ        -0.32348  -0.05619   0.94391   0.33186   0.04645
  16 2   H  1S         -0.35389   0.29905  -0.76512   0.25109   0.23183
  17        2S         -0.34091   0.16636  -0.42564  -0.05614  -0.36882
  18        3PX         0.44752  -0.29618   0.64493  -0.18704  -0.18214
  19        3PY        -0.47480   0.17384  -0.72073   0.18203   0.17871
  20        3PZ        -0.32950   0.26572  -0.43547   0.11918   0.11770
  21 3   H  1S         -0.35389   0.51309   0.64154   0.25109   0.23183
  22        2S         -0.34091   0.28544   0.35690  -0.05613  -0.36882
  23        3PX        -0.20269   0.10149   0.31226   0.07163   0.07092
  24        3PY         0.55440  -0.53153  -0.69306  -0.22743  -0.22184
  25        3PZ        -0.43107   0.47322   0.46794   0.15959   0.15724
  26 4   H  1S         -0.35389  -0.81214   0.12358   0.25109   0.23183
  27        2S         -0.34091  -0.45180   0.06875  -0.05614  -0.36882
  28        3PX        -0.56030  -0.84481   0.20410   0.21390   0.21010
  29        3PY        -0.32009  -0.50506  -0.04274   0.12048   0.11851
  30        3PZ         0.34333   0.54428  -0.07102  -0.14850  -0.14416
  31 5   H  1S          0.25421   0.00000   0.00000   0.50988  -0.21382
  32        2S          0.22390   0.00000   0.00000  -0.22460  -0.79562
  33        3PX         0.09312   0.03831  -0.04280   0.70587  -0.34069
  34        3PY         0.07099   0.03180   0.05368   0.53808  -0.25970
  35        3PZ         0.12316  -0.04729   0.00142   0.93356  -0.45058
  36 6   H  1S         -0.15589   0.00000   0.00000  -0.66049   0.36405
  37        2S         -0.15191   0.00000   0.00000  -0.02107   0.31655
  38        3PX         0.20112  -0.00560   0.00626   0.55329  -0.25647
  39        3PY         0.15331  -0.00465  -0.00785   0.42177  -0.19551
  40        3PZ         0.26599   0.00691  -0.00021   0.73175  -0.33919
     Beta Molecular Orbital Coefficients.
                           1         2         3         4         5
                        (A)--O    (A)--O    (A)--O    (A)--O    (A)--O
     EIGENVALUES --   -11.22070  -0.90281  -0.56499  -0.56499  -0.53928
   1 1   C  1S          0.99612  -0.18746   0.00000   0.00000   0.02930
   2        2S          0.02610   0.34731   0.00000   0.00000  -0.06320
   3        2PX        -0.00011  -0.02912   0.02754   0.35227   0.09800
   4        2PY        -0.00008  -0.02220   0.35585  -0.14376   0.07471
   5        2PZ        -0.00014  -0.03852  -0.22592  -0.18349   0.12963
   6        3S         -0.01379   0.32682   0.00000   0.00000  -0.12800
   7        3PX        -0.00054   0.00039   0.01283   0.16409   0.02972
   8        3PY        -0.00041   0.00030   0.16576  -0.06697   0.02265
   9        3PZ        -0.00072   0.00051  -0.10524  -0.08547   0.03931
  10        4XX        -0.00117   0.00049  -0.01421  -0.00439   0.00115
  11        4YY        -0.00098   0.00386   0.00857   0.00469  -0.00244
  12        4ZZ        -0.00152  -0.00554   0.00564  -0.00030   0.00758
  13        4XY        -0.00041  -0.00708  -0.01328  -0.02167   0.00755
  14        4XZ        -0.00071  -0.01228   0.01859  -0.00253   0.01310
  15        4YZ        -0.00054  -0.00936  -0.01471   0.02096   0.00998
  16 2   H  1S         -0.00012   0.15579  -0.07950   0.27699  -0.06419
  17        2S          0.00239   0.06351  -0.06766   0.23572  -0.05428
  18        3PX         0.00018  -0.00864   0.00352  -0.00518   0.00496
  19        3PY        -0.00016   0.00854   0.00221   0.00967  -0.00130
  20        3PZ        -0.00010   0.00566  -0.00603   0.00562   0.00082
  21 3   H  1S         -0.00012   0.15579   0.27963  -0.06965  -0.06419
  22        2S          0.00239   0.06351   0.23797  -0.05927  -0.05428
  23        3PX        -0.00006   0.00342   0.00579   0.00425   0.00091
  24        3PY         0.00022  -0.01054  -0.00796   0.00111   0.00511
  25        3PZ        -0.00014   0.00754   0.00756  -0.00568   0.00019
  26 4   H  1S         -0.00012   0.15579  -0.20013  -0.20734  -0.06419
  27        2S          0.00239   0.06351  -0.17031  -0.17645  -0.05427
  28        3PX        -0.00019   0.01005  -0.00977  -0.00500  -0.00132
  29        3PY        -0.00010   0.00568  -0.00024  -0.00836  -0.00034
  30        3PZ         0.00015  -0.00682   0.00227   0.00315   0.00502
  31 5   H  1S          0.00015   0.08919   0.00000   0.00000   0.33398
  32        2S          0.00414   0.03435   0.00000   0.00000   0.46634
  33        3PX         0.00016  -0.00266   0.00027   0.00339   0.00318
  34        3PY         0.00013  -0.00203   0.00343  -0.00138   0.00243
  35        3PZ         0.00022  -0.00351  -0.00218  -0.00177   0.00421
  36 6   H  1S         -0.00030   0.03548   0.00000   0.00000   0.20345
  37        2S         -0.00148   0.02098   0.00000   0.00000   0.11160
  38        3PX         0.00014  -0.00293   0.00006   0.00081  -0.01032
  39        3PY         0.00011  -0.00223   0.00082  -0.00033  -0.00787
  40        3PZ         0.00018  -0.00387  -0.00052  -0.00042  -0.01365
                           6         7         8         9        10
                        (A)--V    (A)--V    (A)--V    (A)--V    (A)--V
     EIGENVALUES --     0.11265   0.26775   0.32711   0.32711   0.40278
   1 1   C  1S          0.05963  -0.14526   0.00000   0.00000   0.05404
   2        2S         -0.07787   0.09389   0.00000   0.00000  -0.02068
   3        2PX        -0.18197  -0.07709   0.24317   0.06685  -0.07229
   4        2PY        -0.13871  -0.05877  -0.01031  -0.27373  -0.05511
   5        2PZ        -0.24067  -0.10196  -0.17792   0.10723  -0.09562
   6        3S         -0.44645   2.57690   0.00000   0.00000  -0.92812
   7        3PX        -0.26958  -0.21792   1.26723   0.34835  -0.71946
   8        3PY        -0.20550  -0.16612  -0.05373  -1.42647  -0.54844
   9        3PZ        -0.35654  -0.28823  -0.92717   0.55877  -0.95155
  10        4XX        -0.00072  -0.01082  -0.00481  -0.00495   0.00443
  11        4YY        -0.00149  -0.00990  -0.00163   0.00771  -0.00157
  12        4ZZ         0.00066  -0.01246   0.00643  -0.00276   0.01517
  13        4XY         0.00162  -0.00193   0.00337   0.00244   0.01261
  14        4XZ         0.00281  -0.00334  -0.00341   0.00136   0.02187
  15        4YZ         0.00214  -0.00255  -0.00122  -0.00060   0.01667
  16 2   H  1S          0.01970  -0.00622  -0.04461  -0.03224  -0.06034
  17        2S          0.14895  -1.19953  -1.59636  -1.15367  -0.08945
  18        3PX        -0.00785  -0.00254   0.00660   0.00122  -0.00277
  19        3PY        -0.00328  -0.00247   0.00053  -0.00828  -0.00219
  20        3PZ        -0.00733  -0.00396  -0.00542   0.00375  -0.00375
  21 3   H  1S          0.01970  -0.00622  -0.00561   0.05476  -0.06034
  22        2S          0.14895  -1.19953  -0.20092   1.95933  -0.08946
  23        3PX        -0.00569  -0.00296   0.00793   0.00197  -0.00283
  24        3PY        -0.00669  -0.00180  -0.00052  -0.00708  -0.00209
  25        3PZ        -0.00699  -0.00403  -0.00571   0.00276  -0.00376
  26 4   H  1S          0.01970  -0.00622   0.05023  -0.02252  -0.06034
  27        2S          0.14895  -1.19953   1.79729  -0.80566  -0.08945
  28        3PX        -0.00451  -0.00320   0.00680   0.00267  -0.00287
  29        3PY        -0.00379  -0.00237  -0.00091  -0.00865  -0.00217
  30        3PZ        -0.00956  -0.00352  -0.00447   0.00290  -0.00369
  31 5   H  1S         -0.02547   0.03577   0.00000   0.00000   0.24072
  32        2S         -0.13354  -0.32474   0.00000   0.00001   2.84874
  33        3PX         0.00856   0.00195   0.00357   0.00098  -0.00062
  34        3PY         0.00652   0.00148  -0.00015  -0.00402  -0.00048
  35        3PZ         0.01132   0.00257  -0.00261   0.00157  -0.00082
  36 6   H  1S          0.18340   0.04434   0.00000   0.00000   0.05982
  37        2S          0.73130   0.23816   0.00000   0.00000  -1.98489
  38        3PX        -0.00399  -0.00249   0.00454   0.00125  -0.00113
  39        3PY        -0.00304  -0.00190  -0.00019  -0.00511  -0.00086
  40        3PZ        -0.00527  -0.00330  -0.00332   0.00200  -0.00149
                          11        12        13        14        15
                        (A)--V    (A)--V    (A)--V    (A)--V    (A)--V
     EIGENVALUES --     0.71687   0.71687   0.84905   0.95395   1.14964
   1 1   C  1S          0.00000   0.00000   0.04280  -0.03432   0.00000
   2        2S          0.00000   0.00000   0.10296  -0.05919   0.00000
   3        2PX         0.46675   0.36073  -0.54482  -0.14729   0.68082
   4        2PY         0.22094  -0.60143  -0.41531  -0.11228  -0.26911
   5        2PZ        -0.48025   0.07390  -0.72057  -0.19480  -0.35965
   6        3S          0.00000   0.00000  -0.68848   0.12300   0.00000
   7        3PX        -0.95381  -0.73714   0.63351  -0.13206  -1.07694
   8        3PY        -0.45148   1.22903   0.48292  -0.10067   0.42569
   9        3PZ         0.98139  -0.15102   0.83786  -0.17467   0.56891
  10        4XX        -0.02795   0.02446   0.00812  -0.04012  -0.00291
  11        4YY         0.02643  -0.01412   0.02029  -0.04638  -0.03295
  12        4ZZ         0.00152  -0.01035  -0.01367  -0.02894   0.03586
  13        4XY        -0.06173  -0.01474  -0.02559   0.01314   0.20556
  14        4XZ         0.02894  -0.03685  -0.04440   0.02279   0.00067
  15        4YZ         0.01439   0.06054  -0.03385   0.01738  -0.17959
  16 2   H  1S          0.26680   0.43002   0.24179  -0.24787  -0.73156
  17        2S          0.10660   0.17182   0.12251  -0.07355   1.52042
  18        3PX        -0.02109  -0.02137  -0.00585  -0.02273  -0.06940
  19        3PY        -0.00079   0.02959   0.00068   0.02020   0.10157
  20        3PZ         0.01984   0.00464  -0.00193   0.01232   0.05050
  21 3   H  1S          0.23901  -0.44607   0.24179  -0.24788   0.17547
  22        2S          0.09550  -0.17823   0.12251  -0.07355  -0.36469
  23        3PX        -0.01265  -0.01610  -0.00175   0.00718   0.04735
  24        3PY        -0.01381   0.03186  -0.00580  -0.02714   0.01410
  25        3PZ         0.02060  -0.01194  -0.00129   0.01699  -0.05750
  26 4   H  1S         -0.50581   0.01605   0.24179  -0.24787   0.55609
  27        2S         -0.20210   0.00641   0.12251  -0.07355  -1.15573
  28        3PX        -0.02920  -0.01118   0.00050   0.02362  -0.05247
  29        3PY        -0.01519   0.01964  -0.00029   0.01309  -0.08622
  30        3PZ         0.02431  -0.00266  -0.00617  -0.01863   0.04636
  31 5   H  1S         -0.00001   0.00000  -0.09006  -0.64891   0.00000
  32        2S          0.00000   0.00000   0.12094   1.26928   0.00000
  33        3PX        -0.02347  -0.01814   0.06026  -0.03219   0.01556
  34        3PY        -0.01111   0.03025   0.04594  -0.02454  -0.00615
  35        3PZ         0.02415  -0.00372   0.07971  -0.04257  -0.00822
  36 6   H  1S          0.00000   0.00000   0.12578  -0.84004   0.00000
  37        2S          0.00001   0.00000  -0.43494   0.22430   0.00000
  38        3PX        -0.01605  -0.01240   0.00067   0.01988  -0.01097
  39        3PY        -0.00760   0.02068   0.00051   0.01515   0.00433
  40        3PZ         0.01651  -0.00254   0.00089   0.02629   0.00579
                          16        17        18        19        20
                        (A)--V    (A)--V    (A)--V    (A)--V    (A)--V
     EIGENVALUES --     1.14964   1.19301   1.24545   1.44029   1.66510
   1 1   C  1S          0.00000   0.05274  -0.00951  -0.12465   0.00000
   2        2S          0.00000  -1.19227   0.54159  -1.82974   0.00001
   3        2PX         0.04480   0.18544   0.16181  -0.16544  -0.03613
   4        2PY         0.69050   0.14136   0.12335  -0.12611   0.05628
   5        2PZ        -0.43185   0.24527   0.21401  -0.21882  -0.00512
   6        3S          0.00000   2.29336  -1.45222   5.03328  -0.00002
   7        3PX        -0.07087  -0.42502  -0.47502   0.50409   0.02318
   8        3PY        -1.09225  -0.32399  -0.36210   0.38426  -0.03612
   9        3PZ         0.68311  -0.56215  -0.62826   0.66671   0.00328
  10        4XX         0.13670  -0.01777   0.01020  -0.12108  -0.48556
  11        4YY        -0.12122   0.01378   0.04034  -0.12632   0.51037
  12        4ZZ        -0.01547  -0.07422  -0.04372  -0.11169  -0.02481
  13        4XY         0.09905  -0.06631  -0.06335   0.01103   0.25287
  14        4XZ        -0.16876  -0.11505  -0.10991   0.01914  -0.16055
  15        4YZ         0.12405  -0.08770  -0.08378   0.01459   0.15251
  16 2   H  1S          0.21975   0.51604  -0.01421  -0.41191   0.05430
  17        2S         -0.45671  -1.05435  -0.00144  -0.67957  -0.05428
  18        3PX         0.04250   0.07460   0.01893   0.00708  -0.20119
  19        3PY         0.02244  -0.05184   0.02629   0.01013  -0.15268
  20        3PZ        -0.06206  -0.02409   0.03842   0.01471  -0.10505
  21 3   H  1S         -0.74342   0.51604  -0.01421  -0.41191  -0.05368
  22        2S          1.54508  -1.05436  -0.00145  -0.67956   0.05366
  23        3PX         0.05380  -0.01203   0.02838   0.01085   0.21628
  24        3PY        -0.09880   0.08528   0.01133   0.00416   0.12898
  25        3PZ         0.07376  -0.03762   0.03990   0.01529   0.10333
  26 4   H  1S          0.52368   0.51604  -0.01421  -0.41191  -0.00062
  27        2S         -1.08837  -1.05434  -0.00144  -0.67957   0.00063
  28        3PX        -0.10120  -0.05967   0.03357   0.01292   0.11131
  29        3PY         0.00079  -0.03123   0.02404   0.00923  -0.17319
  30        3PZ         0.03557   0.06555   0.02865   0.01081   0.01962
  31 5   H  1S          0.00000  -0.28063  -1.04680  -0.04332   0.00000
  32        2S          0.00000   0.95398   2.99288  -2.36903   0.00002
  33        3PX         0.00102   0.01460   0.07626   0.06958  -0.14287
  34        3PY         0.01578   0.01113   0.05813   0.05304   0.22254
  35        3PZ        -0.00987   0.01931   0.10086   0.09202  -0.02024
  36 6   H  1S          0.00000  -0.26603   0.68932   0.50085   0.00000
  37        2S          0.00000  -0.19268  -1.79511   0.54418  -0.00001
  38        3PX        -0.00072   0.00568   0.07675   0.04308  -0.05349
  39        3PY        -0.01112   0.00433   0.05850   0.03284   0.08332
  40        3PZ         0.00696   0.00751   0.10151   0.05698  -0.00758
                          21        22        23        24        25
                        (A)--V    (A)--V    (A)--V    (A)--V    (A)--V
     EIGENVALUES --     1.66510   2.05940   2.05940   2.15710   2.31346
   1 1   C  1S          0.00000   0.00000   0.00000  -0.04992   0.00000
   2        2S         -0.00001   0.00001   0.00001   0.02718   0.00000
   3        2PX        -0.04293  -0.02788   0.06653   0.06747   0.00001
   4        2PY        -0.02338   0.07802   0.00712   0.05143   0.00000
   5        2PZ         0.04593  -0.02389  -0.05440   0.08923  -0.00001
   6        3S          0.00003  -0.00003  -0.00005   0.55164   0.00000
   7        3PX         0.02756   0.06710  -0.16010  -0.14597  -0.00003
   8        3PY         0.01501  -0.18776  -0.01714  -0.11127  -0.00002
   9        3PZ        -0.02947   0.05748   0.13091  -0.19306   0.00004
  10        4XX        -0.32099   0.04412  -0.14091  -0.05758   0.00002
  11        4YY        -0.30964  -0.11126  -0.00258   0.06702  -0.00002
  12        4ZZ         0.63063   0.06714   0.14350  -0.28044   0.00000
  13        4XY        -0.06493  -0.06621  -0.09078  -0.26182   0.00004
  14        4XZ        -0.20355   0.08648  -0.03181  -0.45426  -0.00002
  15        4YZ        -0.02875  -0.11887   0.04820  -0.34628  -0.00001
  16 2   H  1S          0.03063   0.03742  -0.03980  -0.25346   0.00002
  17        2S         -0.03062  -0.10555   0.11231  -0.02021   0.00000
  18        3PX        -0.04398   0.13290  -0.17250   0.03772  -0.16995
  19        3PY         0.08384   0.00268  -0.07889   0.10731  -0.41562
  20        3PZ        -0.20977   0.14801  -0.09015   0.13860   0.36805
  21 3   H  1S          0.03171  -0.05318  -0.01249  -0.25346   0.00002
  22        2S         -0.03170   0.15004   0.03526  -0.02021   0.00000
  23        3PX         0.07038  -0.11510  -0.08870   0.10032   0.47902
  24        3PY        -0.10661  -0.18986  -0.03516   0.00822  -0.07352
  25        3PZ        -0.19333  -0.15896   0.00380   0.14838  -0.31980
  26 4   H  1S         -0.06235   0.01577   0.05232  -0.25345  -0.00004
  27        2S          0.06231  -0.04448  -0.14756  -0.02022  -0.00001
  28        3PX         0.12378   0.06187   0.07110   0.13476  -0.30902
  29        3PY         0.10458  -0.03577   0.09370   0.09242   0.48917
  30        3PZ         0.24241   0.07920   0.24180   0.07383  -0.04830
  31 5   H  1S          0.00001  -0.00001  -0.00001   0.28489   0.00000
  32        2S         -0.00004   0.00003   0.00004  -0.42780   0.00000
  33        3PX        -0.16973  -0.18113   0.43213   0.16845   0.00001
  34        3PY        -0.09246   0.50682   0.04624   0.12842   0.00000
  35        3PZ         0.18162  -0.15517  -0.35339   0.22279  -0.00001
  36 6   H  1S          0.00000   0.00000   0.00000  -0.39858   0.00000
  37        2S          0.00002  -0.00001  -0.00002   0.45169   0.00000
  38        3PX        -0.06355  -0.19377   0.46230  -0.16198   0.00001
  39        3PY        -0.03461   0.54221   0.04946  -0.12347   0.00001
  40        3PZ         0.06800  -0.16601  -0.37806  -0.21423  -0.00001
                          26        27        28        29        30
                        (A)--V    (A)--V    (A)--V    (A)--V    (A)--V
     EIGENVALUES --     2.31621   2.31621   2.64429   2.64429   2.82319
   1 1   C  1S          0.00000   0.00000   0.00000   0.00000   0.02179
   2        2S          0.00000   0.00000   0.00000   0.00000   0.21783
   3        2PX        -0.04260   0.07650  -0.08986   0.06409  -0.06600
   4        2PY        -0.06530  -0.06915  -0.03699  -0.11403  -0.05031
   5        2PZ         0.06985  -0.01799   0.08926   0.01727  -0.08729
   6        3S          0.00000   0.00000   0.00000   0.00000  -0.56794
   7        3PX         0.28629  -0.51412  -0.01713   0.01222  -0.37802
   8        3PY         0.43884   0.46470  -0.00705  -0.02174  -0.28816
   9        3PZ        -0.46939   0.12088   0.01701   0.00329  -0.49997
  10        4XX        -0.27109  -0.09138  -0.29690   0.08117   0.00338
  11        4YY         0.23219   0.02175   0.00700  -0.16694  -0.06020
  12        4ZZ         0.03890   0.06963   0.28990   0.08577   0.11709
  13        4XY        -0.39108   0.29243  -0.32946  -0.05530   0.13359
  14        4XZ         0.31703   0.17172   0.03876   0.25368   0.23178
  15        4YZ        -0.08118  -0.47103   0.07554  -0.36782   0.17668
  16 2   H  1S         -0.08160   0.53784  -0.09943   0.14731   0.07036
  17        2S         -0.01236   0.08148   0.10328  -0.15301  -0.04592
  18        3PX        -0.15605   0.31712   0.19521  -0.18542   0.48120
  19        3PY        -0.23913  -0.16354   0.26762  -0.14265   0.14246
  20        3PZ         0.22646   0.04799   0.13296  -0.42178   0.38309
  21 3   H  1S         -0.42498  -0.33959  -0.07786  -0.15977   0.07036
  22        2S         -0.06438  -0.05144   0.08088   0.16595  -0.04592
  23        3PX        -0.21267   0.21495   0.28588   0.21301   0.30242
  24        3PY        -0.24998  -0.25883   0.05748   0.17528   0.42545
  25        3PZ         0.15198  -0.13551   0.09121   0.43656   0.35516
  26 4   H  1S          0.50659  -0.19825   0.17729   0.01245   0.07036
  27        2S          0.07674  -0.03003  -0.18415  -0.01293  -0.04592
  28        3PX        -0.05572   0.23014  -0.33809  -0.12959   0.20409
  29        3PY        -0.16150  -0.26657  -0.26623   0.14885   0.18500
  30        3PZ         0.31746  -0.09169  -0.36622  -0.04226   0.56809
  31 5   H  1S          0.00000   0.00000   0.00000   0.00000   0.05160
  32        2S          0.00000   0.00000   0.00000   0.00000   0.73231
  33        3PX        -0.05507   0.09890  -0.25074   0.17884  -0.06103
  34        3PY        -0.08442  -0.08939  -0.10321  -0.31820  -0.04652
  35        3PZ         0.09029  -0.02325   0.24907   0.04818  -0.08072
  36 6   H  1S          0.00000   0.00000   0.00000   0.00000  -0.01754
  37        2S         -0.00001   0.00000   0.00000   0.00000  -0.23882
[...]
 Coeff:     -0.128D+01-0.658D+01 0.890D+01 0.318D+01 0.183D+00-0.339D+01
 Gap=     0.594 Goal=   None    Shift=    0.000
 Gap=     0.484 Goal=   None    Shift=    0.000
 RMSDP=1.00D-05 MaxDP=2.25D-04 DE=-2.41D-09 OVMax= 5.27D-04

 Cycle 104  Pass 1  IDiag  1:
 E= -40.1742051555754     Delta-E=        0.000000002275 Rises=F Damp=F
 DIIS: error= 2.05D-06 at cycle 104 NSaved=   7.
 NSaved= 7 IEnMin= 2 EnMin= -40.1742051603039     IErMin= 7 ErrMin= 2.05D-06
 ErrMax= 2.05D-06 EMaxC= 1.00D-01 BMatC= 4.25D-11 BMatP= 4.26D-11
 IDIUse=1 WtCom= 1.00D+00 WtEn= 0.00D+00
 Large coefficients: NSaved=  7 BigCof=   14.51 CofMax=   10.00 Det=-4.30D-16
 Inversion failed.  Reducing to  6 matrices.
 Large coefficients: NSaved=  6 BigCof=   14.84 CofMax=   10.00 Det=-4.39D-16
 Inversion failed.  Reducing to  5 matrices.
 Large coefficients: NSaved=  5 BigCof=   15.36 CofMax=   10.00 Det=-1.59D-15
 Inversion failed.  Reducing to  4 matrices.
 Large coefficients: NSaved=  4 BigCof=   11.46 CofMax=   10.00 Det=-2.33D-15
 Inversion failed.  Reducing to  3 matrices.
 Coeff-Com:  0.359D+00-0.225D+00 0.866D+00
 Coeff:      0.359D+00-0.225D+00 0.866D+00
 Gap=     0.594 Goal=   None    Shift=    0.000
 Gap=     0.484 Goal=   None    Shift=    0.000
 RMSDP=4.45D-06 MaxDP=9.70D-05 DE= 2.27D-09 OVMax= 2.45D-04

 Cycle 105  Pass 1  IDiag  1:
 E= -40.1742051568251     Delta-E=       -0.000000001250 Rises=F Damp=F
 DIIS: error= 2.05D-06 at cycle 105 NSaved=   4.
 NSaved= 4 IEnMin= 1 EnMin= -40.1742051603039     IErMin= 4 ErrMin= 2.05D-06
 ErrMax= 2.05D-06 EMaxC= 1.00D-01 BMatC= 4.26D-11 BMatP= 4.25D-11
 IDIUse=1 WtCom= 1.00D+00 WtEn= 0.00D+00
 Coeff-Com:  0.966D+00-0.642D+00 0.304D+01-0.236D+01
 Coeff:      0.966D+00-0.642D+00 0.304D+01-0.236D+01
 Gap=     0.594 Goal=   None    Shift=    0.000
 Gap=     0.484 Goal=   None    Shift=    0.000
 RMSDP=2.94D-06 MaxDP=6.61D-05 DE=-1.25D-09 OVMax= 1.46D-04

 Cycle 106  Pass 1  IDiag  1:
 E= -40.1742051557898     Delta-E=        0.000000001035 Rises=F Damp=F
 DIIS: error= 2.05D-06 at cycle 106 NSaved=   5.
 NSaved= 5 IEnMin= 1 EnMin= -40.1742051603039     IErMin= 4 ErrMin= 2.05D-06
 ErrMax= 2.05D-06 EMaxC= 1.00D-01 BMatC= 4.26D-11 BMatP= 4.25D-11
 IDIUse=1 WtCom= 1.00D+00 WtEn= 0.00D+00
 Large coefficients: NSaved=  5 BigCof=   13.59 CofMax=   10.00 Det=-2.69D-15
 Inversion failed.  Reducing to  4 matrices.
 Coeff-Com:  0.575D+00-0.390D+00-0.559D+00 0.137D+01
 Coeff:      0.575D+00-0.390D+00-0.559D+00 0.137D+01
 Gap=     0.594 Goal=   None    Shift=    0.000
 Gap=     0.484 Goal=   None    Shift=    0.000
 RMSDP=5.36D-06 MaxDP=1.13D-04 DE= 1.04D-09 OVMax= 3.08D-04

 Cycle 107  Pass 1  IDiag  1:
 E= -40.1742051570552     Delta-E=       -0.000000001265 Rises=F Damp=F
 DIIS: error= 2.05D-06 at cycle 107 NSaved=   5.
 NSaved= 5 IEnMin= 1 EnMin= -40.1742051603039     IErMin= 5 ErrMin= 2.05D-06
 ErrMax= 2.05D-06 EMaxC= 1.00D-01 BMatC= 4.26D-11 BMatP= 4.26D-11
 IDIUse=1 WtCom= 1.00D+00 WtEn= 0.00D+00
 Large coefficients: NSaved=  5 BigCof=   11.76 CofMax=   10.00 Det=-5.92D-15
 Inversion failed.  Reducing to  4 matrices.
 Coeff-Com:  0.158D+01-0.111D+01 0.409D+01-0.356D+01
 Coeff:      0.158D+01-0.111D+01 0.409D+01-0.356D+01
 Gap=     0.594 Goal=   None    Shift=    0.000
 Gap=     0.484 Goal=   None    Shift=    0.000
 RMSDP=5.21D-06 MaxDP=1.04D-04 DE=-1.27D-09 OVMax= 3.11D-04

 Cycle 108  Pass 1  IDiag  1:
 E= -40.1742051561550     Delta-E=        0.000000000900 Rises=F Damp=F
 DIIS: error= 2.05D-06 at cycle 108 NSaved=   5.
 NSaved= 5 IEnMin= 1 EnMin= -40.1742051603039     IErMin= 4 ErrMin= 2.05D-06
 ErrMax= 2.05D-06 EMaxC= 1.00D-01 BMatC= 4.26D-11 BMatP= 4.26D-11
 IDIUse=1 WtCom= 1.00D+00 WtEn= 0.00D+00
 Large coefficients: NSaved=  5 BigCof=   19.51 CofMax=   10.00 Det=-1.50D-15
 Inversion failed.  Reducing to  4 matrices.
 Coeff-Com:  0.885D+00-0.659D+00-0.377D+00 0.115D+01
 Coeff:      0.885D+00-0.659D+00-0.377D+00 0.115D+01
 Gap=     0.594 Goal=   None    Shift=    0.000
 Gap=     0.484 Goal=   None    Shift=    0.000
 RMSDP=9.13D-06 MaxDP=1.95D-04 DE= 9.00D-10 OVMax= 5.19D-04

 Cycle 109  Pass 1  IDiag  1:
 E= -40.1742051584028     Delta-E=       -0.000000002248 Rises=F Damp=F
 DIIS: error= 2.05D-06 at cycle 109 NSaved=   5.
 NSaved= 5 IEnMin= 1 EnMin= -40.1742051603039     IErMin= 5 ErrMin= 2.05D-06
 ErrMax= 2.05D-06 EMaxC= 1.00D-01 BMatC= 4.27D-11 BMatP= 4.26D-11
 IDIUse=1 WtCom= 1.00D+00 WtEn= 0.00D+00
 Large coefficients: NSaved=  5 BigCof=   16.37 CofMax=   10.00 Det=-1.50D-15
 Inversion failed.  Reducing to  4 matrices.
 Coeff-Com:  0.157D+01-0.116D+01 0.239D+01-0.180D+01
 Coeff:      0.157D+01-0.116D+01 0.239D+01-0.180D+01
 Gap=     0.594 Goal=   None    Shift=    0.000
 Gap=     0.484 Goal=   None    Shift=    0.000
 RMSDP=6.10D-06 MaxDP=1.34D-04 DE=-2.25D-09 OVMax= 3.34D-04

 Cycle 110  Pass 1  IDiag  1:
 E= -40.1742051566708     Delta-E=        0.000000001732 Rises=F Damp=F
 DIIS: error= 2.05D-06 at cycle 110 NSaved=   5.
 NSaved= 5 IEnMin= 1 EnMin= -40.1742051603039     IErMin= 4 ErrMin= 2.05D-06
 ErrMax= 2.05D-06 EMaxC= 1.00D-01 BMatC= 4.27D-11 BMatP= 4.26D-11
 IDIUse=1 WtCom= 1.00D+00 WtEn= 0.00D+00
 Large coefficients: NSaved=  5 BigCof=   14.25 CofMax=   10.00 Det=-3.56D-15
 Inversion failed.  Reducing to  4 matrices.
 Coeff-Com:  0.606D+00-0.439D+00 0.904D+00-0.709D-01
 Coeff:      0.606D+00-0.439D+00 0.904D+00-0.709D-01
 Gap=     0.594 Goal=   None    Shift=    0.000
 Gap=     0.484 Goal=   None    Shift=    0.000
 RMSDP=1.25D-05 MaxDP=2.70D-04 DE= 1.73D-09 OVMax= 6.99D-04

 Cycle 111  Pass 1  IDiag  1:
 E= -40.1742051599386     Delta-E=       -0.000000003268 Rises=F Damp=F
 DIIS: error= 2.05D-06 at cycle 111 NSaved=   5.
 NSaved= 5 IEnMin= 1 EnMin= -40.1742051603039     IErMin= 5 ErrMin= 2.05D-06
 ErrMax= 2.05D-06 EMaxC= 1.00D-01 BMatC= 4.27D-11 BMatP= 4.27D-11
 IDIUse=1 WtCom= 1.00D+00 WtEn= 0.00D+00
 Large coefficients: NSaved=  5 BigCof=   26.82 CofMax=   10.00 Det=-2.96D-16
 Inversion failed.  Reducing to  4 matrices.
 Large coefficients: NSaved=  4 BigCof=   23.47 CofMax=   10.00 Det=-3.15D-16
 Inversion failed.  Reducing to  3 matrices.
 Coeff-Com: -0.308D-02 0.622D+00 0.381D+00
 Coeff:     -0.308D-02 0.622D+00 0.381D+00
 Gap=     0.594 Goal=   None    Shift=    0.000
 Gap=     0.484 Goal=   None    Shift=    0.000
 RMSDP=7.69D-06 MaxDP=1.65D-04 DE=-3.27D-09 OVMax= 4.32D-04

 Cycle 112  Pass 1  IDiag  1:
 E= -40.1742051579858     Delta-E=        0.000000001953 Rises=F Damp=F
 DIIS: error= 2.05D-06 at cycle 112 NSaved=   4.
 NSaved= 4 IEnMin= 1 EnMin= -40.1742051603039     IErMin= 3 ErrMin= 2.05D-06
 ErrMax= 2.05D-06 EMaxC= 1.00D-01 BMatC= 4.27D-11 BMatP= 4.27D-11
 IDIUse=1 WtCom= 1.00D+00 WtEn= 0.00D+00
 Coeff-Com:  0.512D+00 0.326D+00-0.485D+01 0.501D+01
 Coeff:      0.512D+00 0.326D+00-0.485D+01 0.501D+01
 Gap=     0.594 Goal=   None    Shift=    0.000
 Gap=     0.484 Goal=   None    Shift=    0.000
 RMSDP=3.94D-05 MaxDP=8.25D-04 DE= 1.95D-09 OVMax= 2.28D-03

 Cycle 113  Pass 1  IDiag  1:
 E= -40.1742051488656     Delta-E=        0.000000009120 Rises=F Damp=F
 DIIS: error= 2.05D-06 at cycle 113 NSaved=   5.
 NSaved= 5 IEnMin= 1 EnMin= -40.1742051603039     IErMin= 3 ErrMin= 2.05D-06
 ErrMax= 2.05D-06 EMaxC= 1.00D-01 BMatC= 4.51D-11 BMatP= 4.27D-11
 IDIUse=1 WtCom= 1.00D+00 WtEn= 0.00D+00
 Large coefficients: NSaved=  5 BigCof=   12.42 CofMax=   10.00 Det=-2.94D-15
 Inversion failed.  Reducing to  4 matrices.
 Large coefficients: NSaved=  4 BigCof=   11.71 CofMax=   10.00 Det=-3.11D-15
 Inversion failed.  Reducing to  3 matrices.
 Coeff-Com:  0.124D+01 0.109D+01-0.133D+01
 Coeff:      0.124D+01 0.109D+01-0.133D+01
 Gap=     0.594 Goal=   None    Shift=    0.000
 Gap=     0.484 Goal=   None    Shift=    0.000
 RMSDP=9.02D-05 MaxDP=1.94D-03 DE= 9.12D-09 OVMax= 5.04D-03

 Cycle 114  Pass 1  IDiag  1:
 E= -40.1742051718665     Delta-E=       -0.000000023001 Rises=F Damp=F
 DIIS: error= 2.05D-06 at cycle 114 NSaved=   4.
 NSaved= 4 IEnMin= 4 EnMin= -40.1742051718665     IErMin= 2 ErrMin= 2.05D-06
 ErrMax= 2.05D-06 EMaxC= 1.00D-01 BMatC= 5.69D-11 BMatP= 4.27D-11
 IDIUse=1 WtCom= 1.00D+00 WtEn= 0.00D+00
 Coeff-Com:  0.412D+01-0.403D+00-0.146D+01-0.126D+01
 Coeff:      0.412D+01-0.403D+00-0.146D+01-0.126D+01
 Gap=     0.594 Goal=   None    Shift=    0.000
 Gap=     0.484 Goal=   None    Shift=    0.000
 RMSDP=6.29D-05 MaxDP=1.25D-03 DE=-2.30D-08 OVMax= 3.75D-03

 Cycle 115  Pass 1  IDiag  1:
 E= -40.1742051620160     Delta-E=        0.000000009850 Rises=F Damp=F
 DIIS: error= 2.06D-06 at cycle 115 NSaved=   5.
 NSaved= 5 IEnMin= 4 EnMin= -40.1742051718665     IErMin= 2 ErrMin= 2.05D-06
 ErrMax= 2.06D-06 EMaxC= 1.00D-01 BMatC= 6.37D-11 BMatP= 4.27D-11
 IDIUse=1 WtCom= 1.00D+00 WtEn= 0.00D+00
 Coeff-Com:  0.618D+01-0.351D+01 0.920D+00-0.127D+00-0.247D+01
 Coeff:      0.618D+01-0.351D+01 0.920D+00-0.127D+00-0.247D+01
 Gap=     0.594 Goal=   None    Shift=    0.000
 Gap=     0.484 Goal=   None    Shift=    0.000
 RMSDP=1.84D-05 MaxDP=3.44D-04 DE= 9.85D-09 OVMax= 1.09D-03

 Cycle 116  Pass 1  IDiag  1:
 E= -40.1742051522982     Delta-E=        0.000000009718 Rises=F Damp=F
 DIIS: error= 2.05D-06 at cycle 116 NSaved=   6.
 NSaved= 6 IEnMin= 4 EnMin= -40.1742051718665     IErMin= 2 ErrMin= 2.05D-06
 ErrMax= 2.05D-06 EMaxC= 1.00D-01 BMatC= 4.23D-11 BMatP= 4.27D-11
 IDIUse=1 WtCom= 1.00D+00 WtEn= 0.00D+00
 Coeff-Com:  0.444D+01-0.627D+01 0.266D+01 0.188D+01-0.398D+01 0.228D+01
 Coeff:      0.444D+01-0.627D+01 0.266D+01 0.188D+01-0.398D+01 0.228D+01
 Gap=     0.594 Goal=   None    Shift=    0.000
 Gap=     0.484 Goal=   None    Shift=    0.000
 RMSDP=2.04D-05 MaxDP=4.13D-04 DE= 9.72D-09 OVMax= 1.12D-03

 Cycle 117  Pass 1  IDiag  1:
 E= -40.1742051432968     Delta-E=        0.000000009001 Rises=F Damp=F
 DIIS: error= 2.05D-06 at cycle 117 NSaved=   7.
 NSaved= 7 IEnMin= 4 EnMin= -40.1742051718665     IErMin= 2 ErrMin= 2.05D-06
 ErrMax= 2.05D-06 EMaxC= 1.00D-01 BMatC= 9.21D-11 BMatP= 4.23D-11
 IDIUse=1 WtCom= 1.00D+00 WtEn= 0.00D+00
 Coeff-Com:  0.547D+01-0.738D+01 0.378D+01 0.218D+01-0.426D+01 0.725D+00
 Coeff-Com:  0.495D+00
 Coeff:      0.547D+01-0.738D+01 0.378D+01 0.218D+01-0.426D+01 0.725D+00
 Coeff:      0.495D+00
 Gap=     0.594 Goal=   None    Shift=    0.000
 Gap=     0.484 Goal=   None    Shift=    0.000
 RMSDP=5.10D-06 MaxDP=8.64D-05 DE= 9.00D-09 OVMax= 3.11D-04

 Cycle 118  Pass 1  IDiag  1:
 E= -40.1742051405778     Delta-E=        0.000000002719 Rises=F Damp=F
 DIIS: error= 2.05D-06 at cycle 118 NSaved=   8.
 NSaved= 8 IEnMin= 4 EnMin= -40.1742051718665     IErMin= 8 ErrMin= 2.05D-06
 ErrMax= 2.05D-06 EMaxC= 1.00D-01 BMatC= 1.15D-10 BMatP= 4.23D-11
 IDIUse=1 WtCom= 1.00D+00 WtEn= 0.00D+00
 Coeff-Com:  0.333D+01-0.618D+01 0.241D+01 0.220D+01-0.282D+01 0.246D+01
 Coeff-Com: -0.522D+01 0.482D+01
 Coeff:      0.333D+01-0.618D+01 0.241D+01 0.220D+01-0.282D+01 0.246D+01
 Coeff:     -0.522D+01 0.482D+01
 Gap=     0.594 Goal=   None    Shift=    0.000
 Gap=     0.484 Goal=   None    Shift=    0.000
 RMSDP=9.70D-06 MaxDP=2.19D-04 DE= 2.72D-09 OVMax= 4.80D-04

 Cycle 119  Pass 1  IDiag  1:
 E= -40.1742051441327     Delta-E=       -0.000000003555 Rises=F Damp=F
 DIIS: error= 2.05D-06 at cycle 119 NSaved=   9.
 NSaved= 9 IEnMin= 4 EnMin= -40.1742051718665     IErMin= 8 ErrMin= 2.05D-06
 ErrMax= 2.05D-06 EMaxC= 1.00D-01 BMatC= 1.14D-10 BMatP= 4.23D-11
 IDIUse=1 WtCom= 1.00D+00 WtEn= 0.00D+00
 Large coefficients: NSaved=  9 BigCof=   12.22 CofMax=   10.00 Det=-2.20D-16
 Inversion failed.  Reducing to  8 matrices.
 Coeff-Com:  0.567D+01-0.740D+01 0.384D+01 0.213D+01-0.372D+01-0.265D+00
 Coeff-Com:  0.564D+00 0.180D+00
 Coeff:      0.567D+01-0.740D+01 0.384D+01 0.213D+01-0.372D+01-0.265D+00
 Coeff:      0.564D+00 0.180D+00
 Gap=     0.594 Goal=   None    Shift=    0.000
 Gap=     0.484 Goal=   None    Shift=    0.000
 RMSDP=4.30D-06 MaxDP=9.73D-05 DE=-3.55D-09 OVMax= 2.00D-04

 Cycle 120  Pass 1  IDiag  1:
 Restarting incremental Fock formation.
 E= -40.1742051424370     Delta-E=        0.000000001696 Rises=F Damp=F
 DIIS: error= 2.05D-06 at cycle 120 NSaved=   9.
 NSaved= 9 IEnMin= 4 EnMin= -40.1742051718665     IErMin= 7 ErrMin= 2.05D-06
 ErrMax= 2.05D-06 EMaxC= 1.00D-01 BMatC= 1.16D-10 BMatP= 4.23D-11
 IDIUse=1 WtCom= 1.00D+00 WtEn= 0.00D+00
 Large coefficients: NSaved=  9 BigCof=   54.85 CofMax=   10.00 Det=-2.45D-16
 Inversion failed.  Reducing to  8 matrices.
 Coeff-Com:  0.535D+01-0.716D+01 0.359D+01 0.209D+01-0.381D+01 0.379D+00
 Coeff-Com: -0.190D+00 0.746D+00
 Coeff:      0.535D+01-0.716D+01 0.359D+01 0.209D+01-0.381D+01 0.379D+00
 Coeff:     -0.190D+00 0.746D+00
 Gap=     0.594 Goal=   None    Shift=    0.000
 Gap=     0.484 Goal=   None    Shift=    0.000
 RMSDP=7.74D-07 MaxDP=1.69D-05 DE= 1.70D-09 OVMax= 3.70D-05

 Cycle 121  Pass 1  IDiag  1:
 E= -40.1742051427241     Delta-E=       -0.000000000287 Rises=F Damp=F
 DIIS: error= 2.05D-06 at cycle 121 NSaved=   9.
 NSaved= 9 IEnMin= 4 EnMin= -40.1742051718665     IErMin= 8 ErrMin= 2.05D-06
 ErrMax= 2.05D-06 EMaxC= 1.00D-01 BMatC= 1.11D-10 BMatP= 4.23D-11
 IDIUse=1 WtCom= 1.00D+00 WtEn= 0.00D+00
 Large coefficients: NSaved=  9 BigCof=  198.37 CofMax=   10.00 Det=-9.02D-18
 Inversion failed.  Reducing to  8 matrices.
 Coeff-Com:  0.532D+01-0.701D+01 0.347D+01 0.202D+01-0.370D+01 0.325D+00
 Coeff-Com: -0.308D-01 0.611D+00
 Coeff:      0.532D+01-0.701D+01 0.347D+01 0.202D+01-0.370D+01 0.325D+00
 Coeff:     -0.308D-01 0.611D+00
 Gap=     0.594 Goal=   None    Shift=    0.000
 Gap=     0.484 Goal=   None    Shift=    0.000
 RMSDP=1.68D-06 MaxDP=3.59D-05 DE=-2.87D-10 OVMax= 8.80D-05

 Cycle 122  Pass 1  IDiag  1:
 E= -40.1742051435405     Delta-E=       -0.000000000816 Rises=F Damp=F
 DIIS: error= 2.05D-06 at cycle 122 NSaved=   9.
 NSaved= 9 IEnMin= 4 EnMin= -40.1742051718665     IErMin= 7 ErrMin= 2.05D-06
 ErrMax= 2.05D-06 EMaxC= 1.00D-01 BMatC= 1.07D-10 BMatP= 4.23D-11
 IDIUse=1 WtCom= 1.00D+00 WtEn= 0.00D+00
 Large coefficients: NSaved=  9 BigCof=  124.23 CofMax=   10.00 Det=-1.08D-16
 Inversion failed.  Reducing to  8 matrices.
 Coeff-Com:  0.524D+01-0.750D+01 0.382D+01 0.233D+01-0.421D+01 0.996D+00
 Coeff-Com:  0.436D+01-0.402D+01
 Coeff:      0.524D+01-0.750D+01 0.382D+01 0.233D+01-0.421D+01 0.996D+00
 Coeff:      0.436D+01-0.402D+01
 Gap=     0.594 Goal=   None    Shift=    0.000
 Gap=     0.484 Goal=   None    Shift=    0.000
 RMSDP=9.27D-06 MaxDP=2.06D-04 DE=-8.16D-10 OVMax= 4.40D-04

 Cycle 123  Pass 1  IDiag  1:
 E= -40.1742051393430     Delta-E=        0.000000004197 Rises=F Damp=F
 DIIS: error= 2.05D-06 at cycle 123 NSaved=   9.
 NSaved= 9 IEnMin= 4 EnMin= -40.1742051718665     IErMin= 9 ErrMin= 2.05D-06
 ErrMax= 2.05D-06 EMaxC= 1.00D-01 BMatC= 1.24D-10 BMatP= 4.23D-11
 IDIUse=1 WtCom= 1.00D+00 WtEn= 0.00D+00
 Large coefficients: NSaved=  9 BigCof=  402.81 CofMax=   10.00 Det=-6.46D-19
 Inversion failed.  Reducing to  8 matrices.
 Coeff-Com:  0.538D+01-0.759D+01 0.392D+01 0.233D+01-0.423D+01 0.757D+00
 Coeff-Com: -0.335D+00 0.770D+00
 Coeff:      0.538D+01-0.759D+01 0.392D+01 0.233D+01-0.423D+01 0.757D+00
 Coeff:     -0.335D+00 0.770D+00
 Gap=     0.594 Goal=   None    Shift=    0.000
 Gap=     0.484 Goal=   None    Shift=    0.000
 RMSDP=6.89D-07 MaxDP=1.49D-05 DE= 4.20D-09 OVMax= 3.52D-05

 Cycle 124  Pass 1  IDiag  1:
 E= -40.1742051390127     Delta-E=        0.000000000330 Rises=F Damp=F
 DIIS: error= 2.05D-06 at cycle 124 NSaved=   9.
 NSaved= 9 IEnMin= 4 EnMin= -40.1742051718665     IErMin= 9 ErrMin= 2.05D-06
 ErrMax= 2.05D-06 EMaxC= 1.00D-01 BMatC= 1.26D-10 BMatP= 4.23D-11
 IDIUse=1 WtCom= 1.00D+00 WtEn= 0.00D+00
 Large coefficients: NSaved=  9 BigCof=   98.82 CofMax=   10.00 Det=-3.29D-17
 Inversion failed.  Reducing to  8 matrices.
 Large coefficients: NSaved=  8 BigCof=   99.00 CofMax=   10.00 Det=-3.30D-17
 Inversion failed.  Reducing to  7 matrices.
 Large coefficients: NSaved=  7 BigCof=   32.92 CofMax=   10.00 Det=-4.97D-17
 Inversion failed.  Reducing to  6 matrices.
 Large coefficients: NSaved=  6 BigCof=   23.60 CofMax=   10.00 Det=-1.40D-16
 Inversion failed.  Reducing to  5 matrices.
 Coeff-Com:  0.153D+01-0.293D+00-0.240D+00-0.451D+01 0.451D+01
 Coeff:      0.153D+01-0.293D+00-0.240D+00-0.451D+01 0.451D+01
 Gap=     0.594 Goal=   None    Shift=    0.000
 Gap=     0.484 Goal=   None    Shift=    0.000
 RMSDP=3.04D-05 MaxDP=5.20D-04 DE= 3.30D-10 OVMax= 1.85D-03

 Cycle 125  Pass 1  IDiag  1:
 E= -40.1742051548411     Delta-E=       -0.000000015828 Rises=F Damp=F
 DIIS: error= 2.05D-06 at cycle 125 NSaved=   6.
 NSaved= 6 IEnMin= 2 EnMin= -40.1742051718665     IErMin= 5 ErrMin= 2.05D-06
 ErrMax= 2.05D-06 EMaxC= 1.00D-01 BMatC= 4.31D-11 BMatP= 4.51D-11
 IDIUse=1 WtCom= 1.00D+00 WtEn= 0.00D+00
 Large coefficients: NSaved=  6 BigCof=   34.48 CofMax=   10.00 Det=-1.14D-16
 Inversion failed.  Reducing to  5 matrices.
 Coeff-Com:  0.434D+01-0.844D+00-0.536D+00 0.299D-01-0.199D+01
 Coeff:      0.434D+01-0.844D+00-0.536D+00 0.299D-01-0.199D+01
 Gap=     0.594 Goal=   None    Shift=    0.000
 Gap=     0.484 Goal=   None    Shift=    0.000
 RMSDP=8.70D-06 MaxDP=1.82D-04 DE=-1.58D-08 OVMax= 4.82D-04

 Cycle 126  Pass 1  IDiag  1:
 E= -40.1742051592063     Delta-E=       -0.000000004365 Rises=F Damp=F
 DIIS: error= 2.05D-06 at cycle 126 NSaved=   6.
 NSaved= 6 IEnMin= 2 EnMin= -40.1742051718665     IErMin= 4 ErrMin= 2.05D-06
 ErrMax= 2.05D-06 EMaxC= 1.00D-01 BMatC= 4.78D-11 BMatP= 4.31D-11
 IDIUse=1 WtCom= 1.00D+00 WtEn= 0.00D+00
 Coeff-Com:  0.748D+01-0.919D+00 0.221D+01 0.258D+00-0.101D+01-0.701D+01
 Coeff:      0.748D+01-0.919D+00 0.221D+01 0.258D+00-0.101D+01-0.701D+01
 Gap=     0.594 Goal=   None    Shift=    0.000
 Gap=     0.484 Goal=   None    Shift=    0.000
 RMSDP=9.78D-06 MaxDP=1.86D-04 DE=-4.37D-09 OVMax= 5.92D-04

 Cycle 127  Pass 1  IDiag  1:
 E= -40.1742051605287     Delta-E=       -0.000000001322 Rises=F Damp=F
 DIIS: error= 2.05D-06 at cycle 127 NSaved=   7.
 NSaved= 7 IEnMin= 2 EnMin= -40.1742051718665     IErMin= 4 ErrMin= 2.05D-06
 ErrMax= 2.05D-06 EMaxC= 1.00D-01 BMatC= 4.71D-11 BMatP= 4.31D-11
 IDIUse=1 WtCom= 1.00D+00 WtEn= 0.00D+00
 Coeff-Com:  0.457D+01-0.747D+00 0.578D+00 0.289D+00-0.235D+01-0.236D+01
 Coeff-Com:  0.102D+01
 Coeff:      0.457D+01-0.747D+00 0.578D+00 0.289D+00-0.235D+01-0.236D+01
 Coeff:      0.102D+01
 Gap=     0.594 Goal=   None    Shift=    0.000
 Gap=     0.484 Goal=   None    Shift=    0.000
 RMSDP=5.12D-06 MaxDP=1.06D-04 DE=-1.32D-09 OVMax= 3.00D-04

 Cycle 128  Pass 1  IDiag  1:
 E= -40.1742051615725     Delta-E=       -0.000000001044 Rises=F Damp=F
 DIIS: error= 2.05D-06 at cycle 128 NSaved=   8.
 NSaved= 8 IEnMin= 2 EnMin= -40.1742051718665     IErMin= 4 ErrMin= 2.05D-06
 ErrMax= 2.05D-06 EMaxC= 1.00D-01 BMatC= 4.61D-11 BMatP= 4.31D-11
 IDIUse=1 WtCom= 1.00D+00 WtEn= 0.00D+00
 Large coefficients: NSaved=  8 BigCof=   12.54 CofMax=   10.00 Det=-2.22D-16
 Inversion failed.  Reducing to  7 matrices.
 Coeff-Com:  0.697D+01-0.116D+01 0.799D+00-0.138D+01-0.449D+01-0.859D+00
 Coeff-Com:  0.112D+01
 Coeff:      0.697D+01-0.116D+01 0.799D+00-0.138D+01-0.449D+01-0.859D+00
 Coeff:      0.112D+01
 Gap=     0.594 Goal=   None    Shift=    0.000
 Gap=     0.484 Goal=   None    Shift=    0.000
 RMSDP=8.46D-06 MaxDP=1.52D-04 DE=-1.04D-09 OVMax= 5.19D-04

 >>>>>>>>>> Convergence criterion not met.
 SCF Done:  E(UHF) =  -40.1742051616     A.U. after  129 cycles
             Convg  =    0.8457D-05             -V/T =  1.9985
             S**2   =   3.7083
 KE= 4.023500505574D+01 PE=-9.996155889754D+01 EE= 1.618103827339D+01
 Annihilation of the first spin contaminant:
 S**2 before annihilation     3.7083,   after     8.6460
 Convergence failure -- run terminated.
 Error termination via Lnk1e in /soft/g03/g03/l502.exe at Wed Apr 10 03:04:28 2013.
 Job cpu time:  0 days  0 hours  1 minutes 39.2 seconds.
 File lengths (MBytes):  RWF=     60 Int=      0 D2E=      0 Chk=     15 Scr=      1
total 20
drwx------  2 scanne04 2013007  4096 Apr 10 03:04 .
drwxrwxrwt 69 root     root    12288 Apr 10 03:02 ..
-rw-r--r--  1 scanne04 2013007   423 Apr 10 03:02 forward.inp
/local/run/antares-adm.114832.0
