 Entering Gaussian System, Link 0=g09
 Initial command:
 /apps/gaussian/g09/l1.exe /scratch_l/henon/forward_2841/Gau-2857.inp -scrdir=/scratch_l/henon/forward_2841/
 Entering Link 1 = /apps/gaussian/g09/l1.exe PID=      2858.
  
 Copyright (c) 1988,1990,1992,1993,1995,1998,2003,2009, Gaussian, Inc.
                  All Rights Reserved.
  
 This is part of the Gaussian(R) 09 program.  It is based on
 the Gaussian(R) 03 system (copyright 2003, Gaussian, Inc.),
 the Gaussian(R) 98 system (copyright 1998, Gaussian, Inc.),
 the Gaussian(R) 94 system (copyright 1995, Gaussian, Inc.),
 the Gaussian 92(TM) system (copyright 1992, Gaussian, Inc.),
 the Gaussian 90(TM) system (copyright 1990, Gaussian, Inc.),
 the Gaussian 88(TM) system (copyright 1988, Gaussian, Inc.),
 the Gaussian 86(TM) system (copyright 1986, Carnegie Mellon
 University), and the Gaussian 82(TM) system (copyright 1983,
 Carnegie Mellon University). Gaussian is a federally registered
 trademark of Gaussian, Inc.
  
 This software contains proprietary and confidential information,
 including trade secrets, belonging to Gaussian, Inc.
  
 This software is provided under written license and may be
 used, copied, transmitted, or stored only in accord with that
 written license.
  
 The following legend is applicable only to US Government
 contracts under FAR:
  
                    RESTRICTED RIGHTS LEGEND
  
 Use, reproduction and disclosure by the US Government is
 subject to restrictions as set forth in subparagraphs (a)
 and (c) of the Commercial Computer Software - Restricted
 Rights clause in FAR 52.227-19.
  
 Gaussian, Inc.
 340 Quinnipiac St., Bldg. 40, Wallingford CT 06492
  
  
 ---------------------------------------------------------------
 Warning -- This program may not be used in any manner that
 competes with the business of Gaussian, Inc. or will provide
 assistance to any competitor of Gaussian, Inc.  The licensee
 of this program is prohibited from giving any competitor of
 Gaussian, Inc. access to this program.  By using this program,
 the user acknowledges that Gaussian, Inc. is engaged in the
 business of creating and licensing software in the field of
 computational chemistry and represents and warrants to the
 licensee that it is not a competitor of Gaussian, Inc. and that
 it will not use this program in any manner prohibited above.
 ---------------------------------------------------------------
  

 Cite this work as:
 Gaussian 09, Revision A.02,
 M. J. Frisch, G. W. Trucks, H. B. Schlegel, G. E. Scuseria, 
 M. A. Robb, J. R. Cheeseman, G. Scalmani, V. Barone, B. Mennucci, 
 G. A. Petersson, H. Nakatsuji, M. Caricato, X. Li, H. P. Hratchian, 
 A. F. Izmaylov, J. Bloino, G. Zheng, J. L. Sonnenberg, M. Hada, 
 M. Ehara, K. Toyota, R. Fukuda, J. Hasegawa, M. Ishida, T. Nakajima, 
 Y. Honda, O. Kitao, H. Nakai, T. Vreven, J. A. Montgomery, Jr., 
 J. E. Peralta, F. Ogliaro, M. Bearpark, J. J. Heyd, E. Brothers, 
 K. N. Kudin, V. N. Staroverov, R. Kobayashi, J. Normand, 
 K. Raghavachari, A. Rendell, J. C. Burant, S. S. Iyengar, J. Tomasi, 
 M. Cossi, N. Rega, J. M. Millam, M. Klene, J. E. Knox, J. B. Cross, 
 V. Bakken, C. Adamo, J. Jaramillo, R. Gomperts, R. E. Stratmann, 
 O. Yazyev, A. J. Austin, R. Cammi, C. Pomelli, J. W. Ochterski, 
 R. L. Martin, K. Morokuma, V. G. Zakrzewski, G. A. Voth, 
 P. Salvador, J. J. Dannenberg, S. Dapprich, A. D. Daniels, 
 O. Farkas, J. B. Foresman, J. V. Ortiz, J. Cioslowski, 
 and D. J. Fox, Gaussian, Inc., Wallingford CT, 2009.
 
 ******************************************
 Gaussian 09:  AM64L-G09RevA.02 11-Jun-2009
                25-Apr-2014 
 ******************************************
 %NPROC=12
 Will use up to   12 processors via shared memory.
 %MEM=500MB
 ----------------------------------------------------------------------
 #P M06 6-311G** IRC=(forward, calcfc, stepsize=20, maxcyc=10) # GFINPU
 T IOP(6/7=3) POP=FULL
 ----------------------------------------------------------------------
 1/6=10,10=4,14=-1,18=20,22=1,26=3,38=1,39=20,44=3/1,23;
 2/9=110,12=2,17=6,18=5,29=1,40=1/2;
 3/5=4,6=6,7=101,11=2,16=1,24=10,25=1,30=1,71=2,74=-54/1,2,3;
 4//1;
 5/5=2,38=5/2;
 8/6=4,10=90,11=11/1;
 11/6=1,8=1,9=11,15=111,16=1/1,2,10;
 10/6=1,7=6,13=1/2;
 6/7=3,28=1/1;
 7/10=1,18=20,25=1/1,2,3,16;
 1/6=10,10=4,14=-1,18=20,22=1,39=20,44=3/23(3);
 2/9=110,29=1/2;
 7/9=1,25=1,44=-1/16;
 99//99;
 2/9=110,29=1/2;
 3/5=4,6=6,7=101,11=2,16=1,25=1,30=1,71=2,74=-54/1,2,3;
 4/5=5,16=3/1;
 5/5=2,38=5/2;
 8/6=4,10=90,11=11/1;
 11/6=1,8=1,9=11,15=111,16=1/1,2,10;
 10/6=1,7=6,13=1/2;
 7/10=1,18=20,25=1/1,2,3,16;
 1/6=10,14=-1,18=20,22=1,39=20,44=3/23(-8);
 2/9=110,29=1/2;
 6/7=3,19=2,28=1/1;
 7/9=1,25=1,44=-1/16;
 99/9=1/99;
 Leave Link    1 at Fri Apr 25 16:38:41 2014, MaxMem=   65536000 cpu:       0.6
 (Enter /apps/gaussian/g09/l101.exe)
 --------------------
 forward IRC, from TS
 --------------------
 Symbolic Z-matrix:
 Charge =  0 Multiplicity = 2
 7                     0.06734  -0.0451    0.00991 
 7                    -0.05743  -0.00183   1.13552 
 7                     0.46649   0.01184  -1.16334 
 1                    -0.31053   0.00243  -1.8215 
 1                     1.41829   1.36272  -1.62843 
 
 NAtoms=      5 NQM=      5 NQMF=      0 NMic=      0 NMicF=      0 NTot=      5.
                    Isotopes and Nuclear Properties:
 (Nuclear quadrupole moments (NQMom) in fm**2, nuclear magnetic moments (NMagM)
  in nuclear magnetons)

  Atom         1           2           3           4           5
 IAtWgt=          14          14          14           1           1
 AtmWgt=  14.0030740  14.0030740  14.0030740   1.0078250   1.0078250
 NucSpn=           2           2           2           1           1
 AtZEff=   0.0000000   0.0000000   0.0000000   0.0000000   0.0000000
 NQMom=    2.0440000   2.0440000   2.0440000   0.0000000   0.0000000
 NMagM=    0.4037610   0.4037610   0.4037610   2.7928460   2.7928460
 Leave Link  101 at Fri Apr 25 16:38:41 2014, MaxMem=   65536000 cpu:       0.5
 (Enter /apps/gaussian/g09/l123.exe)
 IRC-IRC-IRC-IRC-IRC-IRC-IRC-IRC-IRC-IRC-IRC-IRC-IRC-IRC-IRC-IRC-IRC-IRC
 ------------------------------------------------------------------------
 INPUT DATA FOR L123
 ------------------------------------------------------------------------
 GENERAL PARAMETERS:
 Rxn path following direction = Forward
 Maximum points per path      =  10
 Step size                    =   0.200 bohr
 Integration scheme           = HPC                                 
    Redo corrector integration= Yes                                 
    Max correction cycles     =  10
 Initial Hessian              = CalcFC
 Hessian eveluation           = All updating
    Hessian updating method   = Bofill                              
 ------------------------------------------------------------------------
 IRC-IRC-IRC-IRC-IRC-IRC-IRC-IRC-IRC-IRC-IRC-IRC-IRC-IRC-IRC-IRC-IRC-IRC
 Leave Link  123 at Fri Apr 25 16:38:41 2014, MaxMem=   65536000 cpu:       0.0
 (Enter /apps/gaussian/g09/l202.exe)
                          Input orientation:                          
 ---------------------------------------------------------------------
 Center     Atomic      Atomic             Coordinates (Angstroms)
 Number     Number       Type             X           Y           Z
 ---------------------------------------------------------------------
      1          7           0        0.067338   -0.045098    0.009907
      2          7           0       -0.057433   -0.001827    1.135520
      3          7           0        0.466490    0.011841   -1.163339
      4          1           0       -0.310525    0.002434   -1.821497
      5          1           0        1.418288    1.362722   -1.628428
 ---------------------------------------------------------------------
                    Distance matrix (angstroms):
                    1          2          3          4          5
     1  N    0.000000
     2  N    1.133333   0.000000
     3  N    1.240593   2.357845   0.000000
     4  H    1.870583   2.967831   1.018338   0.000000
     5  H    2.547776   3.417478   1.716714   2.208269   0.000000
 Symmetry turned off by external request.
 Stoichiometry    H2N3(2)
 Framework group  C1[X(H2N3)]
 Deg. of freedom     9
 Full point group                 C1      NOp   1
 Rotational constants (GHZ):    150.0616538     11.0873169     10.5189610
 Leave Link  202 at Fri Apr 25 16:38:41 2014, MaxMem=   65536000 cpu:       0.9
 (Enter /apps/gaussian/g09/l301.exe)
 Standard basis: 6-311G(d,p) (5D, 7F)
 Ernie: Thresh=  0.10000D-02 Tol=  0.10000D-05 Strict=F.
 AO basis set in the form of general basis input (Overlap normalization):
      1 0
 S   6 1.00       0.000000000000
      0.6293480000D+04  0.1969788147D-02
      0.9490440000D+03  0.1496128592D-01
      0.2187760000D+03  0.7350053084D-01
      0.6369160000D+02  0.2489367658D+00
      0.1882820000D+02  0.6024594331D+00
      0.2720230000D+01  0.2562017589D+00
 SP   3 1.00       0.000000000000
      0.3063310000D+02  0.1119060795D+00  0.3831191864D-01
      0.7026140000D+01  0.9216666549D+00  0.2374031155D+00
      0.2112050000D+01 -0.2569191826D-02  0.8175923978D+00
 SP   1 1.00       0.000000000000
      0.6840090000D+00  0.1000000000D+01  0.1000000000D+01
 SP   1 1.00       0.000000000000
      0.2008780000D+00  0.1000000000D+01  0.1000000000D+01
 D   1 1.00       0.000000000000
      0.9130000000D+00  0.1000000000D+01
 ****
      2 0
 S   6 1.00       0.000000000000
      0.6293480000D+04  0.1969788147D-02
      0.9490440000D+03  0.1496128592D-01
      0.2187760000D+03  0.7350053084D-01
      0.6369160000D+02  0.2489367658D+00
      0.1882820000D+02  0.6024594331D+00
      0.2720230000D+01  0.2562017589D+00
 SP   3 1.00       0.000000000000
      0.3063310000D+02  0.1119060795D+00  0.3831191864D-01
      0.7026140000D+01  0.9216666549D+00  0.2374031155D+00
      0.2112050000D+01 -0.2569191826D-02  0.8175923978D+00
 SP   1 1.00       0.000000000000
      0.6840090000D+00  0.1000000000D+01  0.1000000000D+01
 SP   1 1.00       0.000000000000
      0.2008780000D+00  0.1000000000D+01  0.1000000000D+01
 D   1 1.00       0.000000000000
      0.9130000000D+00  0.1000000000D+01
 ****
      3 0
 S   6 1.00       0.000000000000
      0.6293480000D+04  0.1969788147D-02
      0.9490440000D+03  0.1496128592D-01
      0.2187760000D+03  0.7350053084D-01
      0.6369160000D+02  0.2489367658D+00
      0.1882820000D+02  0.6024594331D+00
      0.2720230000D+01  0.2562017589D+00
 SP   3 1.00       0.000000000000
      0.3063310000D+02  0.1119060795D+00  0.3831191864D-01
      0.7026140000D+01  0.9216666549D+00  0.2374031155D+00
      0.2112050000D+01 -0.2569191826D-02  0.8175923978D+00
 SP   1 1.00       0.000000000000
      0.6840090000D+00  0.1000000000D+01  0.1000000000D+01
 SP   1 1.00       0.000000000000
      0.2008780000D+00  0.1000000000D+01  0.1000000000D+01
 D   1 1.00       0.000000000000
      0.9130000000D+00  0.1000000000D+01
 ****
      4 0
 S   3 1.00       0.000000000000
      0.3386500000D+02  0.2549381454D-01
      0.5094790000D+01  0.1903731086D+00
      0.1158790000D+01  0.8521614860D+00
 S   1 1.00       0.000000000000
      0.3258400000D+00  0.1000000000D+01
 S   1 1.00       0.000000000000
      0.1027410000D+00  0.1000000000D+01
 P   1 1.00       0.000000000000
      0.7500000000D+00  0.1000000000D+01
 ****
      5 0
 S   3 1.00       0.000000000000
      0.3386500000D+02  0.2549381454D-01
      0.5094790000D+01  0.1903731086D+00
      0.1158790000D+01  0.8521614860D+00
 S   1 1.00       0.000000000000
      0.3258400000D+00  0.1000000000D+01
 S   1 1.00       0.000000000000
      0.1027410000D+00  0.1000000000D+01
 P   1 1.00       0.000000000000
      0.7500000000D+00  0.1000000000D+01
 ****

 Integral buffers will be    131072 words long.
 Raffenetti 2 integral format.
 Two-electron integral symmetry is turned off.
    66 basis functions,   112 primitive gaussians,    69 cartesian basis functions
    12 alpha electrons       11 beta electrons
       nuclear repulsion energy        66.5784970733 Hartrees.
 IExCor= 4235 DFT=T Ex+Corr=M06 ExCW=0 ScaHFX=  0.270000
 ScaDFX=  1.000000  1.000000  1.000000  1.000000 ScalE2=  1.000000  1.000000
 IRadAn=      0 IRanWt=     -1 IRanGd=            0 ICorTp=0
 NAtoms=    5 NActive=    5 NUniq=    5 SFac= 7.50D-01 NAtFMM=   80 NAOKFM=F Big=F
 Leave Link  301 at Fri Apr 25 16:38:41 2014, MaxMem=   65536000 cpu:       0.3
 (Enter /apps/gaussian/g09/l302.exe)
 NPDir=0 NMtPBC=     1 NCelOv=     1 NCel=       1 NClECP=     1 NCelD=      1
         NCelK=      1 NCelE2=     1 NClLst=     1 CellRange=     0.0.
 One-electron integrals computed using PRISM.
 NBasis=    66 RedAO= T  NBF=    66
 NBsUse=    66 1.00D-06 NBFU=    66
 Precomputing XC quadrature grid using
 IXCGrd= 2 IRadAn=           0 IRanWt=          -1 IRanGd=           0 AccXCQ= 1.00D-10.
 NRdTot=     311 NPtTot=       39452 NUsed=       41707 NTot=       41739
 NSgBfM=    69    69    69    69    69 NAtAll=     5     5.
 Leave Link  302 at Fri Apr 25 16:38:41 2014, MaxMem=   65536000 cpu:       2.4
 (Enter /apps/gaussian/g09/l303.exe)
 DipDrv:  MaxL=1.
 Leave Link  303 at Fri Apr 25 16:38:41 2014, MaxMem=   65536000 cpu:       0.2
 (Enter /apps/gaussian/g09/l401.exe)
 Harris functional with IExCor= 1009 diagonalized for initial guess.
 ExpMin= 1.03D-01 ExpMax= 6.29D+03 ExpMxC= 9.49D+02 IAcc=1 IRadAn=         1 AccDes= 0.00D+00
 HarFok:  IExCor= 1009 AccDes= 0.00D+00 IRadAn=         1 IDoV= 1
 ScaDFX=  1.000000  1.000000  1.000000  1.000000
 FoFCou: FMM=F IPFlag=           0 FMFlag=      100000 FMFlg1=           0
         NFxFlg=           0 DoJE=T BraDBF=F KetDBF=T FulRan=T
         Omega=  0.000000  0.000000  1.000000  0.000000  0.000000 ICntrl=     500 IOpCl=  0
         NMat0=    1 NMatS0=    1 NMatT0=    0 NMatD0=    1 NMtDS0=    0 NMtDT0=    0
         I1Cent=           4 NGrid=           0.
 Symmetry not used in FoFCou.
 Harris En= -165.167871734309    
 Initial guess <Sx>= 0.0000 <Sy>= 0.0000 <Sz>= 0.5000 <S**2>= 0.7500 S= 0.5000
 Leave Link  401 at Fri Apr 25 16:38:42 2014, MaxMem=   65536000 cpu:       1.6
 (Enter /apps/gaussian/g09/l502.exe)
 UHF open shell SCF:
 Requested convergence on RMS density matrix=1.00D-08 within 128 cycles.
 Requested convergence on MAX density matrix=1.00D-06.
 Requested convergence on             energy=1.00D-06.
 No special actions if energy rises.
 Using DIIS extrapolation, IDIIS=  1040.
 Two-electron integral symmetry not used.
        41649 words used for storage of precomputed grid.
 Keep R1 and R2 ints in memory in canonical form, NReq=6799133.
 IEnd=       75330 IEndB=       75330 NGot=    65536000 MDV=    59647473
 LenX=    59647473 LenY=    59642271
 Symmetry not used in FoFDir.
 MinBra= 0 MaxBra= 2 Meth= 1.
 IRaf=       0 NMat=   1 IRICut=       1 DoRegI=T DoRafI=F ISym2E= 0 JSym2E=0.
 Integral accuracy reduced to 1.0D-05 until final iterations.

 Cycle   1  Pass 0  IDiag  1:
 E= -165.181587988675    
 DIIS: error= 2.78D-02 at cycle   1 NSaved=   1.
 NSaved= 1 IEnMin= 1 EnMin= -165.181587988675     IErMin= 1 ErrMin= 2.78D-02
 ErrMax= 2.78D-02 EMaxC= 1.00D-01 BMatC= 1.98D-01 BMatP= 1.98D-01
 IDIUse=3 WtCom= 7.22D-01 WtEn= 2.78D-01
 Coeff-Com:  0.100D+01
 Coeff-En:   0.100D+01
 Coeff:      0.100D+01
 Gap=     0.175 Goal=   None    Shift=    0.000
 Gap=     0.203 Goal=   None    Shift=    0.000
 GapD=    0.175 DampG=1.000 DampE=0.500 DampFc=0.5000 IDamp=-1.
 Damping current iteration by 5.00D-01
 RMSDP=5.84D-03 MaxDP=1.33D-01              OVMax= 1.32D-01

 Cycle   2  Pass 0  IDiag  1:
 E= -165.193074329426     Delta-E=       -0.011486340751 Rises=F Damp=T
 DIIS: error= 1.04D-02 at cycle   2 NSaved=   2.
 NSaved= 2 IEnMin= 2 EnMin= -165.193074329426     IErMin= 2 ErrMin= 1.04D-02
 ErrMax= 1.04D-02 EMaxC= 1.00D-01 BMatC= 3.53D-02 BMatP= 1.98D-01
 IDIUse=3 WtCom= 8.96D-01 WtEn= 1.04D-01
 Coeff-Com:  0.229D+00 0.771D+00
 Coeff-En:   0.329D+00 0.671D+00
 Coeff:      0.239D+00 0.761D+00
 Gap=     0.170 Goal=   None    Shift=    0.000
 Gap=     0.228 Goal=   None    Shift=    0.000
 RMSDP=1.40D-03 MaxDP=2.00D-02 DE=-1.15D-02 OVMax= 8.80D-02

 Cycle   3  Pass 0  IDiag  1:
 E= -165.218189361539     Delta-E=       -0.025115032112 Rises=F Damp=F
 DIIS: error= 1.15D-02 at cycle   3 NSaved=   3.
 NSaved= 3 IEnMin= 3 EnMin= -165.218189361539     IErMin= 2 ErrMin= 1.04D-02
 ErrMax= 1.15D-02 EMaxC= 1.00D-01 BMatC= 2.08D-02 BMatP= 3.53D-02
 IDIUse=3 WtCom= 8.85D-01 WtEn= 1.15D-01
 Coeff-Com:  0.724D-01 0.421D+00 0.506D+00
 Coeff-En:   0.000D+00 0.000D+00 0.100D+01
 Coeff:      0.640D-01 0.373D+00 0.563D+00
 Gap=     0.171 Goal=   None    Shift=    0.000
 Gap=     0.245 Goal=   None    Shift=    0.000
 RMSDP=1.22D-03 MaxDP=1.56D-02 DE=-2.51D-02 OVMax= 4.55D-02

 Cycle   4  Pass 0  IDiag  1:
 E= -165.218711666481     Delta-E=       -0.000522304943 Rises=F Damp=F
 DIIS: error= 1.31D-02 at cycle   4 NSaved=   4.
 NSaved= 4 IEnMin= 4 EnMin= -165.218711666481     IErMin= 2 ErrMin= 1.04D-02
 ErrMax= 1.31D-02 EMaxC= 1.00D-01 BMatC= 1.90D-02 BMatP= 2.08D-02
 IDIUse=3 WtCom= 8.69D-01 WtEn= 1.31D-01
 Coeff-Com:  0.785D-02 0.124D+00 0.467D+00 0.402D+00
 Coeff-En:   0.000D+00 0.000D+00 0.477D+00 0.523D+00
 Coeff:      0.682D-02 0.107D+00 0.468D+00 0.418D+00
 Gap=     0.169 Goal=   None    Shift=    0.000
 Gap=     0.244 Goal=   None    Shift=    0.000
 RMSDP=7.10D-04 MaxDP=7.75D-03 DE=-5.22D-04 OVMax= 2.87D-02

 Cycle   5  Pass 0  IDiag  1:
 E= -165.222733824813     Delta-E=       -0.004022158332 Rises=F Damp=F
 DIIS: error= 1.79D-03 at cycle   5 NSaved=   5.
 NSaved= 5 IEnMin= 5 EnMin= -165.222733824813     IErMin= 5 ErrMin= 1.79D-03
 ErrMax= 1.79D-03 EMaxC= 1.00D-01 BMatC= 6.50D-04 BMatP= 1.90D-02
 IDIUse=3 WtCom= 9.82D-01 WtEn= 1.79D-02
 Coeff-Com: -0.807D-02-0.440D-02 0.163D+00 0.215D+00 0.635D+00
 Coeff-En:   0.000D+00 0.000D+00 0.000D+00 0.000D+00 0.100D+01
 Coeff:     -0.792D-02-0.432D-02 0.160D+00 0.211D+00 0.642D+00
 Gap=     0.175 Goal=   None    Shift=    0.000
 Gap=     0.244 Goal=   None    Shift=    0.000
 RMSDP=2.93D-04 MaxDP=5.04D-03 DE=-4.02D-03 OVMax= 1.70D-02

 Cycle   6  Pass 0  IDiag  1:
 E= -165.222952294162     Delta-E=       -0.000218469348 Rises=F Damp=F
 DIIS: error= 8.60D-04 at cycle   6 NSaved=   6.
 NSaved= 6 IEnMin= 6 EnMin= -165.222952294162     IErMin= 6 ErrMin= 8.60D-04
 ErrMax= 8.60D-04 EMaxC= 1.00D-01 BMatC= 1.05D-04 BMatP= 6.50D-04
 IDIUse=3 WtCom= 9.91D-01 WtEn= 8.60D-03
 Coeff-Com: -0.846D-02-0.115D-01-0.747D-01-0.877D-01 0.154D+00 0.103D+01
 Coeff-En:   0.000D+00 0.000D+00 0.000D+00 0.000D+00 0.000D+00 0.100D+01
 Coeff:     -0.839D-02-0.114D-01-0.740D-01-0.869D-01 0.153D+00 0.103D+01
 Gap=     0.175 Goal=   None    Shift=    0.000
 Gap=     0.247 Goal=   None    Shift=    0.000
 RMSDP=1.34D-04 MaxDP=2.28D-03 DE=-2.18D-04 OVMax= 7.13D-03

 Cycle   7  Pass 0  IDiag  1:
 E= -165.223011102224     Delta-E=       -0.000058808063 Rises=F Damp=F
 DIIS: error= 1.79D-04 at cycle   7 NSaved=   7.
 NSaved= 7 IEnMin= 7 EnMin= -165.223011102224     IErMin= 7 ErrMin= 1.79D-04
 ErrMax= 1.79D-04 EMaxC= 1.00D-01 BMatC= 5.50D-06 BMatP= 1.05D-04
 IDIUse=3 WtCom= 9.98D-01 WtEn= 1.79D-03
 Coeff-Com: -0.890D-03 0.132D-02-0.279D-01-0.351D-01-0.830D-01 0.151D+00
 Coeff-Com:  0.995D+00
 Coeff-En:   0.000D+00 0.000D+00 0.000D+00 0.000D+00 0.000D+00 0.000D+00
 Coeff-En:   0.100D+01
 Coeff:     -0.889D-03 0.132D-02-0.278D-01-0.350D-01-0.828D-01 0.151D+00
 Coeff:      0.995D+00
 Gap=     0.176 Goal=   None    Shift=    0.000
 Gap=     0.248 Goal=   None    Shift=    0.000
 RMSDP=5.84D-05 MaxDP=1.05D-03 DE=-5.88D-05 OVMax= 3.04D-03

 Cycle   8  Pass 0  IDiag  1:
 E= -165.223016049453     Delta-E=       -0.000004947229 Rises=F Damp=F
 DIIS: error= 6.47D-05 at cycle   8 NSaved=   8.
 NSaved= 8 IEnMin= 8 EnMin= -165.223016049453     IErMin= 8 ErrMin= 6.47D-05
 ErrMax= 6.47D-05 EMaxC= 1.00D-01 BMatC= 2.95D-07 BMatP= 5.50D-06
 IDIUse=1 WtCom= 1.00D+00 WtEn= 0.00D+00
 Coeff-Com:  0.463D-03 0.696D-03 0.390D-02 0.211D-02-0.104D-01-0.517D-01
 Coeff-Com:  0.968D-02 0.105D+01
 Coeff:      0.463D-03 0.696D-03 0.390D-02 0.211D-02-0.104D-01-0.517D-01
 Coeff:      0.968D-02 0.105D+01
 Gap=     0.176 Goal=   None    Shift=    0.000
 Gap=     0.248 Goal=   None    Shift=    0.000
 RMSDP=1.20D-05 MaxDP=1.47D-04 DE=-4.95D-06 OVMax= 5.04D-04

 Cycle   9  Pass 0  IDiag  1:
 E= -165.223016346951     Delta-E=       -0.000000297498 Rises=F Damp=F
 DIIS: error= 2.04D-05 at cycle   9 NSaved=   9.
 NSaved= 9 IEnMin= 9 EnMin= -165.223016346951     IErMin= 9 ErrMin= 2.04D-05
 ErrMax= 2.04D-05 EMaxC= 1.00D-01 BMatC= 3.12D-08 BMatP= 2.95D-07
 IDIUse=1 WtCom= 1.00D+00 WtEn= 0.00D+00
 Coeff-Com:  0.371D-04 0.741D-04 0.275D-02 0.321D-02 0.831D-02-0.171D-01
 Coeff-Com: -0.918D-01 0.209D-01 0.107D+01
 Coeff:      0.371D-04 0.741D-04 0.275D-02 0.321D-02 0.831D-02-0.171D-01
 Coeff:     -0.918D-01 0.209D-01 0.107D+01
 Gap=     0.176 Goal=   None    Shift=    0.000
 Gap=     0.248 Goal=   None    Shift=    0.000
 RMSDP=4.44D-06 MaxDP=3.83D-05 DE=-2.97D-07 OVMax= 1.85D-04

 Initial convergence to 1.0D-05 achieved.  Increase integral accuracy.
 Cycle  10  Pass 1  IDiag  1:
 E= -165.223018124581     Delta-E=       -0.000001777630 Rises=F Damp=F
 DIIS: error= 9.90D-05 at cycle   1 NSaved=   1.
 NSaved= 1 IEnMin= 1 EnMin= -165.223018124581     IErMin= 1 ErrMin= 9.90D-05
 ErrMax= 9.90D-05 EMaxC= 1.00D-01 BMatC= 3.47D-06 BMatP= 3.47D-06
 IDIUse=1 WtCom= 1.00D+00 WtEn= 0.00D+00
 Coeff-Com:  0.100D+01
 Coeff:      0.100D+01
 Gap=     0.176 Goal=   None    Shift=    0.000
 Gap=     0.248 Goal=   None    Shift=    0.000
 RMSDP=4.44D-06 MaxDP=3.83D-05 DE=-1.78D-06 OVMax= 2.08D-04

 Cycle  11  Pass 1  IDiag  1:
 E= -165.223018653893     Delta-E=       -0.000000529313 Rises=F Damp=F
 DIIS: error= 1.94D-05 at cycle   2 NSaved=   2.
 NSaved= 2 IEnMin= 2 EnMin= -165.223018653893     IErMin= 2 ErrMin= 1.94D-05
 ErrMax= 1.94D-05 EMaxC= 1.00D-01 BMatC= 5.43D-08 BMatP= 3.47D-06
 IDIUse=1 WtCom= 1.00D+00 WtEn= 0.00D+00
 Coeff-Com: -0.108D-02 0.100D+01
 Coeff:     -0.108D-02 0.100D+01
 Gap=     0.176 Goal=   None    Shift=    0.000
 Gap=     0.248 Goal=   None    Shift=    0.000
 RMSDP=4.07D-06 MaxDP=4.78D-05 DE=-5.29D-07 OVMax= 1.57D-04

 Cycle  12  Pass 1  IDiag  1:
 E= -165.223018600896     Delta-E=        0.000000052997 Rises=F Damp=F
 DIIS: error= 5.43D-05 at cycle   3 NSaved=   3.
 NSaved= 3 IEnMin= 2 EnMin= -165.223018653893     IErMin= 2 ErrMin= 1.94D-05
 ErrMax= 5.43D-05 EMaxC= 1.00D-01 BMatC= 3.07D-07 BMatP= 5.43D-08
 IDIUse=1 WtCom= 1.00D+00 WtEn= 0.00D+00
 Coeff-Com: -0.169D-01 0.734D+00 0.283D+00
 Coeff:     -0.169D-01 0.734D+00 0.283D+00
 Gap=     0.176 Goal=   None    Shift=    0.000
 Gap=     0.248 Goal=   None    Shift=    0.000
 RMSDP=2.81D-06 MaxDP=2.82D-05 DE= 5.30D-08 OVMax= 1.09D-04

 Cycle  13  Pass 1  IDiag  1:
 E= -165.223018666910     Delta-E=       -0.000000066014 Rises=F Damp=F
 DIIS: error= 5.62D-06 at cycle   4 NSaved=   4.
 NSaved= 4 IEnMin= 4 EnMin= -165.223018666910     IErMin= 4 ErrMin= 5.62D-06
 ErrMax= 5.62D-06 EMaxC= 1.00D-01 BMatC= 3.58D-09 BMatP= 5.43D-08
 IDIUse=1 WtCom= 1.00D+00 WtEn= 0.00D+00
 Coeff-Com: -0.375D-02 0.468D-01 0.997D-01 0.857D+00
 Coeff:     -0.375D-02 0.468D-01 0.997D-01 0.857D+00
 Gap=     0.176 Goal=   None    Shift=    0.000
 Gap=     0.248 Goal=   None    Shift=    0.000
 RMSDP=5.11D-07 MaxDP=8.89D-06 DE=-6.60D-08 OVMax= 1.83D-05

 Cycle  14  Pass 1  IDiag  1:
 E= -165.223018667983     Delta-E=       -0.000000001073 Rises=F Damp=F
 DIIS: error= 1.51D-06 at cycle   5 NSaved=   5.
 NSaved= 5 IEnMin= 5 EnMin= -165.223018667983     IErMin= 5 ErrMin= 1.51D-06
 ErrMax= 1.51D-06 EMaxC= 1.00D-01 BMatC= 5.43D-10 BMatP= 3.58D-09
 IDIUse=1 WtCom= 1.00D+00 WtEn= 0.00D+00
 Coeff-Com: -0.147D-02-0.124D-01 0.314D-01 0.413D+00 0.570D+00
 Coeff:     -0.147D-02-0.124D-01 0.314D-01 0.413D+00 0.570D+00
 Gap=     0.176 Goal=   None    Shift=    0.000
 Gap=     0.248 Goal=   None    Shift=    0.000
 RMSDP=2.13D-07 MaxDP=2.43D-06 DE=-1.07D-09 OVMax= 9.77D-06

 Cycle  15  Pass 1  IDiag  1:
 E= -165.223018668147     Delta-E=       -0.000000000164 Rises=F Damp=F
 DIIS: error= 9.86D-07 at cycle   6 NSaved=   6.
 NSaved= 6 IEnMin= 6 EnMin= -165.223018668147     IErMin= 6 ErrMin= 9.86D-07
 ErrMax= 9.86D-07 EMaxC= 1.00D-01 BMatC= 2.04D-10 BMatP= 5.43D-10
 IDIUse=1 WtCom= 1.00D+00 WtEn= 0.00D+00
 Coeff-Com:  0.120D-02-0.313D-01-0.321D-01-0.145D+00 0.372D+00 0.835D+00
 Coeff:      0.120D-02-0.313D-01-0.321D-01-0.145D+00 0.372D+00 0.835D+00
 Gap=     0.176 Goal=   None    Shift=    0.000
 Gap=     0.248 Goal=   None    Shift=    0.000
 RMSDP=1.68D-07 MaxDP=2.07D-06 DE=-1.64D-10 OVMax= 8.98D-06

 Cycle  16  Pass 1  IDiag  1:
 E= -165.223018668252     Delta-E=       -0.000000000104 Rises=F Damp=F
 DIIS: error= 2.14D-07 at cycle   7 NSaved=   7.
 NSaved= 7 IEnMin= 7 EnMin= -165.223018668252     IErMin= 7 ErrMin= 2.14D-07
 ErrMax= 2.14D-07 EMaxC= 1.00D-01 BMatC= 8.84D-12 BMatP= 2.04D-10
 IDIUse=1 WtCom= 1.00D+00 WtEn= 0.00D+00
 Coeff-Com:  0.381D-03 0.671D-03-0.725D-02-0.886D-01-0.238D-01-0.504D-02
 Coeff-Com:  0.112D+01
 Coeff:      0.381D-03 0.671D-03-0.725D-02-0.886D-01-0.238D-01-0.504D-02
 Coeff:      0.112D+01
 Gap=     0.176 Goal=   None    Shift=    0.000
 Gap=     0.248 Goal=   None    Shift=    0.000
 RMSDP=8.82D-08 MaxDP=7.98D-07 DE=-1.04D-10 OVMax= 4.64D-06

 Cycle  17  Pass 1  IDiag  1:
 E= -165.223018668265     Delta-E=       -0.000000000013 Rises=F Damp=F
 DIIS: error= 7.01D-08 at cycle   8 NSaved=   8.
 NSaved= 8 IEnMin= 8 EnMin= -165.223018668265     IErMin= 8 ErrMin= 7.01D-08
 ErrMax= 7.01D-08 EMaxC= 1.00D-01 BMatC= 2.00D-12 BMatP= 8.84D-12
 IDIUse=1 WtCom= 1.00D+00 WtEn= 0.00D+00
 Coeff-Com:  0.662D-04 0.207D-02-0.121D-03-0.195D-01-0.384D-01-0.976D-01
 Coeff-Com:  0.433D+00 0.720D+00
 Coeff:      0.662D-04 0.207D-02-0.121D-03-0.195D-01-0.384D-01-0.976D-01
 Coeff:      0.433D+00 0.720D+00
 Gap=     0.176 Goal=   None    Shift=    0.000
 Gap=     0.248 Goal=   None    Shift=    0.000
 RMSDP=2.33D-08 MaxDP=3.55D-07 DE=-1.32D-11 OVMax= 1.27D-06

 Cycle  18  Pass 1  IDiag  1:
 E= -165.223018668266     Delta-E=       -0.000000000001 Rises=F Damp=F
 DIIS: error= 5.25D-08 at cycle   9 NSaved=   9.
 NSaved= 9 IEnMin= 9 EnMin= -165.223018668266     IErMin= 9 ErrMin= 5.25D-08
 ErrMax= 5.25D-08 EMaxC= 1.00D-01 BMatC= 2.72D-13 BMatP= 2.00D-12
 IDIUse=1 WtCom= 1.00D+00 WtEn= 0.00D+00
 Coeff-Com: -0.303D-04 0.730D-03 0.514D-03 0.603D-02-0.590D-02-0.339D-01
 Coeff-Com: -0.730D-02 0.193D+00 0.847D+00
 Coeff:     -0.303D-04 0.730D-03 0.514D-03 0.603D-02-0.590D-02-0.339D-01
 Coeff:     -0.730D-02 0.193D+00 0.847D+00
 Gap=     0.176 Goal=   None    Shift=    0.000
 Gap=     0.248 Goal=   None    Shift=    0.000
 RMSDP=6.54D-09 MaxDP=8.88D-08 DE=-1.17D-12 OVMax= 3.38D-07

 SCF Done:  E(UM06) =  -165.223018668     A.U. after   18 cycles
             Convg  =    0.6541D-08             -V/T =  2.0020
 <Sx>= 0.0000 <Sy>= 0.0000 <Sz>= 0.5000 <S**2>= 0.7619 S= 0.5060
 <L.S>=  0.00000000000    
 KE= 1.648890106305D+02 PE=-5.195736371494D+02 EE= 1.228831107774D+02
 Annihilation of the first spin contaminant:
 S**2 before annihilation     0.7619,   after     0.7500
 Leave Link  502 at Fri Apr 25 16:38:43 2014, MaxMem=   65536000 cpu:      15.9
 (Enter /apps/gaussian/g09/l801.exe)
 Range of M.O.s used for correlation:     1    66
 NBasis=    66 NAE=    12 NBE=    11 NFC=     0 NFV=     0
 NROrb=     66 NOA=    12 NOB=    11 NVA=    54 NVB=    55
 Leave Link  801 at Fri Apr 25 16:38:43 2014, MaxMem=   65536000 cpu:       0.1
 (Enter /apps/gaussian/g09/l1101.exe)
 Using compressed storage, NAtomX=     5.
 Will process   6 centers per pass.
 Leave Link 1101 at Fri Apr 25 16:38:43 2014, MaxMem=   65536000 cpu:       1.2
 (Enter /apps/gaussian/g09/l1102.exe)
 Symmetrizing basis deriv contribution to polar:
 IMax=3 JMax=2 DiffMx= 0.00D+00
 Leave Link 1102 at Fri Apr 25 16:38:43 2014, MaxMem=   65536000 cpu:       0.2
 (Enter /apps/gaussian/g09/l1110.exe)
 Forming Gx(P) for the SCF density, NAtomX=     5.
 Integral derivatives from FoFDir/FoFCou, PRISM(SPDF).
 Do as many integral derivatives as possible in FoFDir.
 G2DrvN: MDV=      65535856.
 G2DrvN: will do     6 centers at a time, making    1 passes doing MaxLOS=2.
 Calling FoFCou, ICntrl=  3107 FMM=F I1Cent=   0 AccDes= 0.00D+00.
 FoFCou: FMM=F IPFlag=           0 FMFlag=      100000 FMFlg1=           0
         NFxFlg=           0 DoJE=F BraDBF=F KetDBF=F FulRan=T
         Omega=  0.000000  0.000000  1.000000  0.000000  0.000000 ICntrl=    3107 IOpCl=  1
         NMat0=    1 NMatS0=    1 NMatT0=    0 NMatD0=    1 NMtDS0=    0 NMtDT0=    0
         I1Cent=           0 NGrid=           0.
 Symmetry not used in FoFCou.
 FoFDir/FoFCou used for L=0 through L=2.
 End of G2Drv Frequency-dependent properties file   721 does not exist.
 End of G2Drv Frequency-dependent properties file   722 does not exist.
 Leave Link 1110 at Fri Apr 25 16:38:45 2014, MaxMem=   65536000 cpu:      16.9
 (Enter /apps/gaussian/g09/l1002.exe)
 Minotr:  UHF open shell wavefunction.
          IDoAtm=11111
          Direct CPHF calculation.
          Differentiating once with respect to nuclear coordinates.
          Requested convergence is 1.0D-06 RMS, and 1.0D-05 maximum.
          Secondary convergence is 1.0D-12 RMS, and 1.0D-12 maximum.
          NewPWx=T KeepS1=F KeepF1=F KeepIn=T MapXYZ=F SortEE=F KeepMc=T.
          MDV=      65535946 using IRadAn=       2.
 Generate precomputed XC quadrature information.
          Keep R1 and R2 ints in memory in canonical form, NReq=6656460.
 Symmetry not used in FoFDir.
 MinBra= 0 MaxBra= 2 Meth= 1.
 IRaf=       0 NMat=   1 IRICut=       1 DoRegI=T DoRafI=F ISym2E= 0 JSym2E=0.
          Solving linear equations simultaneously, MaxMat=       0.
          There are    18 degrees of freedom in the 1st order CPHF.  IDoFFX=5.
     12 vectors produced by pass  0 Test12= 6.96D-11 5.56D-07 XBig12= 5.79D-01 1.60D-01.
 AX will form    12 AO Fock derivatives at one time.
     12 vectors produced by pass  1 Test12= 6.96D-11 5.56D-07 XBig12= 4.94D-01 2.49D-01.
     12 vectors produced by pass  2 Test12= 6.96D-11 5.56D-07 XBig12= 1.44D-02 3.22D-02.
     12 vectors produced by pass  3 Test12= 6.96D-11 5.56D-07 XBig12= 2.59D-04 4.51D-03.
     12 vectors produced by pass  4 Test12= 6.96D-11 5.56D-07 XBig12= 3.95D-06 5.03D-04.
     10 vectors produced by pass  5 Test12= 6.96D-11 5.56D-07 XBig12= 3.62D-08 4.84D-05.
      2 vectors produced by pass  6 Test12= 6.96D-11 5.56D-07 XBig12= 2.65D-10 3.68D-06.
 Inverted reduced A of dimension    72 with in-core refinement.
 End of Minotr Frequency-dependent properties file   721 does not exist.
 End of Minotr Frequency-dependent properties file   722 does not exist.
 Leave Link 1002 at Fri Apr 25 16:38:46 2014, MaxMem=   65536000 cpu:      18.6
 (Enter /apps/gaussian/g09/l601.exe)
 Copying SCF densities to generalized density rwf, IOpCl= 1 IROHF=0.

 **********************************************************************

            Population analysis using the SCF density.

 **********************************************************************

 Alpha  occ. eigenvalues --  -14.56804 -14.47200 -14.45971  -1.17507  -1.00880
 Alpha  occ. eigenvalues --   -0.65648  -0.56012  -0.54454  -0.48159  -0.39334
 Alpha  occ. eigenvalues --   -0.32387  -0.21382
 Alpha virt. eigenvalues --   -0.03797   0.00689   0.03827   0.22176   0.25984
 Alpha virt. eigenvalues --    0.36373   0.41924   0.45577   0.50113   0.52959
 Alpha virt. eigenvalues --    0.60116   0.64578   0.67570   0.68792   0.74118
 Alpha virt. eigenvalues --    0.77913   0.90946   1.01888   1.12325   1.21958
 Alpha virt. eigenvalues --    1.36612   1.40808   1.43529   1.50913   1.65008
 Alpha virt. eigenvalues --    1.66222   1.70773   1.83749   1.86792   2.07329
 Alpha virt. eigenvalues --    2.09998   2.17072   2.23577   2.35667   2.38690
 Alpha virt. eigenvalues --    2.47421   2.48485   2.65717   2.85095   3.02941
 Alpha virt. eigenvalues --    3.17065   3.47878   3.51426   3.62928   3.87145
 Alpha virt. eigenvalues --    3.89968   3.90567   4.07931   4.27142   4.35711
 Alpha virt. eigenvalues --    5.03324  34.96481  35.46299  36.15697
  Beta  occ. eigenvalues --  -14.56768 -14.46845 -14.45825  -1.16878  -1.00272
  Beta  occ. eigenvalues --   -0.65470  -0.54711  -0.54182  -0.47105  -0.37108
  Beta  occ. eigenvalues --   -0.31433
  Beta virt. eigenvalues --   -0.06668  -0.02337   0.02196   0.05160   0.22626
  Beta virt. eigenvalues --    0.35872   0.37976   0.41838   0.45643   0.50124
  Beta virt. eigenvalues --    0.53924   0.60356   0.65121   0.67959   0.68820
  Beta virt. eigenvalues --    0.74084   0.78590   0.91409   1.02447   1.12572
  Beta virt. eigenvalues --    1.22691   1.40343   1.44488   1.45921   1.53040
  Beta virt. eigenvalues --    1.65690   1.66836   1.71396   1.84275   1.90808
  Beta virt. eigenvalues --    2.08210   2.11001   2.21453   2.24545   2.37987
  Beta virt. eigenvalues --    2.39073   2.47560   2.61958   2.66335   2.85223
  Beta virt. eigenvalues --    3.03997   3.17607   3.47709   3.51821   3.63581
  Beta virt. eigenvalues --    3.87027   3.90689   3.91549   4.07935   4.26872
  Beta virt. eigenvalues --    4.35965   5.03349  34.96829  35.46547  36.16020
     Alpha Molecular Orbital Coefficients:
                           1         2         3         4         5
                           O         O         O         O         O
     Eigenvalues --   -14.56804 -14.47200 -14.45971  -1.17507  -1.00880
   1 1   N  1S          0.55747  -0.00330  -0.00120  -0.10507  -0.00553
   2        2S          0.46463  -0.00212  -0.00074  -0.16298  -0.00914
   3        2PX         0.00033  -0.00015   0.00022   0.00478   0.03445
   4        2PY         0.00010   0.00002   0.00003   0.00521   0.00091
   5        2PZ        -0.00018   0.00104  -0.00073   0.03426  -0.17524
   6        3S          0.01826  -0.00279  -0.00090   0.46249   0.03147
   7        3PX         0.00011   0.00076  -0.00082   0.00795   0.04640
   8        3PY         0.00027  -0.00016  -0.00013   0.00649   0.00168
   9        3PZ         0.00252  -0.00576   0.00268   0.03452  -0.23300
  10        4S         -0.00364   0.00344   0.00211   0.21086   0.02517
  11        4PX        -0.00034  -0.00146   0.00200   0.00516   0.01005
  12        4PY        -0.00017   0.00005   0.00049   0.00274  -0.00110
  13        4PZ         0.00050   0.00764  -0.00770  -0.00539  -0.06644
  14        5D 0        0.00438  -0.00268  -0.00118   0.02215   0.00160
  15        5D+1       -0.00151   0.00046   0.00085  -0.00733  -0.00355
  16        5D-1        0.00005  -0.00020   0.00011   0.00029  -0.00162
  17        5D+2        0.00016  -0.00001  -0.00016   0.00152   0.00081
  18        5D-2        0.00002   0.00003  -0.00003   0.00062   0.00048
  19 2   N  1S          0.00309   0.55741   0.00084  -0.06732   0.06547
  20        2S          0.00333   0.46515   0.00072  -0.10372   0.10208
  21        2PX         0.00006   0.00019   0.00006   0.00976  -0.00553
  22        2PY        -0.00004  -0.00008   0.00001  -0.00298   0.00400
  23        2PZ        -0.00081  -0.00181  -0.00007  -0.08224   0.07017
  24        3S         -0.00312   0.01693  -0.00002   0.28984  -0.28878
  25        3PX        -0.00048   0.00047  -0.00020   0.01352  -0.00627
  26        3PY         0.00027  -0.00015  -0.00005  -0.00368   0.00567
  27        3PZ         0.00557  -0.00411   0.00007  -0.10937   0.09169
  28        4S         -0.00099  -0.01179   0.00517   0.11467  -0.14002
  29        4PX         0.00012  -0.00026  -0.00003   0.00145  -0.00166
  30        4PY         0.00004   0.00023  -0.00032  -0.00151   0.00150
  31        4PZ        -0.00027   0.00409  -0.00178  -0.02300   0.02579
  32        5D 0       -0.00306   0.00241  -0.00006   0.01652  -0.01489
  33        5D+1        0.00042  -0.00051   0.00021  -0.00345   0.00133
  34        5D-1       -0.00027   0.00015   0.00009   0.00111  -0.00191
  35        5D+2       -0.00001   0.00003  -0.00001   0.00046  -0.00015
  36        5D-2        0.00002  -0.00000   0.00001   0.00040  -0.00047
  37 3   N  1S          0.00112  -0.00084   0.55761  -0.04676  -0.08533
  38        2S          0.00128  -0.00068   0.46504  -0.07205  -0.13276
  39        2PX        -0.00018   0.00003  -0.00139  -0.02180  -0.04146
  40        2PY        -0.00005   0.00001   0.00005  -0.00098  -0.00142
  41        2PZ         0.00086   0.00014   0.00100   0.04354   0.04987
  42        3S         -0.00099  -0.00005   0.01675   0.20058   0.37308
  43        3PX         0.00065  -0.00012  -0.00138  -0.03016  -0.06181
  44        3PY         0.00021  -0.00005   0.00011  -0.00089  -0.00236
  45        3PZ        -0.00363  -0.00034   0.00027   0.06450   0.07941
  46        4S          0.00063   0.00387  -0.01259   0.07724   0.21209
  47        4PX        -0.00022  -0.00054   0.00146  -0.00908  -0.02028
  48        4PY         0.00001  -0.00016  -0.00046   0.00089   0.00332
  49        4PZ         0.00102   0.00170  -0.00313  -0.00027   0.01854
  50        5D 0       -0.00159  -0.00020   0.00108   0.00837   0.01224
  51        5D+1        0.00156  -0.00008   0.00019  -0.00514  -0.00931
  52        5D-1        0.00022  -0.00006  -0.00004  -0.00049  -0.00171
  53        5D+2       -0.00008   0.00002   0.00046   0.00247   0.00549
  54        5D-2       -0.00008   0.00004   0.00000   0.00040   0.00115
  55 4   H  1S         -0.00030  -0.00002  -0.00008   0.02153   0.05645
  56        2S         -0.00077   0.00002  -0.00135   0.01908   0.05337
  57        3S          0.00071   0.00043   0.00135  -0.01160  -0.00928
  58        4PX        -0.00062  -0.00002  -0.00160   0.00330   0.00959
  59        4PY        -0.00003  -0.00000   0.00009  -0.00005  -0.00028
  60        4PZ        -0.00035   0.00011  -0.00120   0.00562   0.01185
  61 5   H  1S          0.00009   0.00003  -0.00006   0.00213   0.00675
  62        2S         -0.00028  -0.00012   0.00053   0.00456   0.00633
  63        3S          0.00028   0.00017   0.00026  -0.00328  -0.00052
  64        4PX         0.00004  -0.00000  -0.00027  -0.00026  -0.00058
  65        4PY         0.00002  -0.00001  -0.00029  -0.00042  -0.00086
  66        4PZ        -0.00003  -0.00001   0.00025   0.00027  -0.00020
                           6         7         8         9        10
                           O         O         O         O         O
     Eigenvalues --    -0.65648  -0.56012  -0.54454  -0.48159  -0.39334
   1 1   N  1S          0.04255   0.02588  -0.01677   0.02780   0.00548
   2        2S          0.06785   0.04182  -0.02699   0.04485   0.00896
   3        2PX        -0.07854   0.15090  -0.12059  -0.01667  -0.08007
   4        2PY         0.00313   0.13444   0.17982   0.00064  -0.02895
   5        2PZ         0.08072   0.04538  -0.03612  -0.12870   0.00144
   6        3S         -0.21050  -0.12851   0.08336  -0.14246  -0.03120
   7        3PX        -0.11858   0.23303  -0.18542  -0.02840  -0.12060
   8        3PY         0.00558   0.20856   0.27728   0.00105  -0.04274
   9        3PZ         0.11026   0.06747  -0.05423  -0.17615  -0.00382
  10        4S         -0.21429  -0.13885   0.08827  -0.16978  -0.01336
  11        4PX        -0.06941   0.15902  -0.13482  -0.02711  -0.11493
  12        4PY        -0.00000   0.13622   0.19063   0.00022  -0.04046
  13        4PZ         0.06029   0.07715  -0.03936  -0.14211   0.09321
  14        5D 0        0.00560  -0.00574  -0.00024   0.00074  -0.01278
  15        5D+1        0.00603   0.00445  -0.00441  -0.00454  -0.03368
  16        5D-1       -0.00031   0.00183   0.00407   0.00083  -0.01486
  17        5D+2       -0.00303   0.00090  -0.00316   0.00007   0.00567
  18        5D-2       -0.00101   0.00385   0.00171  -0.00077   0.00279
  19 2   N  1S         -0.03199  -0.02147   0.01622  -0.07529  -0.00020
  20        2S         -0.05066  -0.03442   0.02591  -0.11995  -0.00054
  21        2PX        -0.02698   0.08985  -0.07242  -0.05069  -0.14072
  22        2PY        -0.00023   0.08101   0.11148   0.01231  -0.06237
  23        2PZ        -0.00109   0.02858  -0.03241   0.20485  -0.00874
  24        3S          0.14748   0.10246  -0.07640   0.34116   0.00229
  25        3PX        -0.04330   0.13989  -0.11264  -0.07298  -0.21200
  26        3PY        -0.00018   0.12524   0.17289   0.01758  -0.09429
  27        3PZ        -0.00066   0.03910  -0.04582   0.27614  -0.01330
  28        4S          0.13509   0.08453  -0.08717   0.58393  -0.07561
  29        4PX        -0.01439   0.06940  -0.05882  -0.04208  -0.17475
  30        4PY         0.00086   0.06647   0.09224   0.00982  -0.07264
  31        4PZ        -0.00464   0.03094  -0.02477   0.13796   0.01967
  32        5D 0        0.00151  -0.00494   0.00785  -0.02510   0.00444
  33        5D+1        0.00884  -0.02322   0.01837   0.01104   0.02207
  34        5D-1       -0.00009  -0.02091  -0.02852  -0.00239   0.00942
  35        5D+2       -0.00082   0.00352  -0.00111  -0.00009  -0.00271
  36        5D-2        0.00071   0.00169   0.00370   0.00124  -0.00001
  37 3   N  1S         -0.04662  -0.02847   0.02295   0.00262  -0.02500
  38        2S         -0.07340  -0.04550   0.03661   0.00412  -0.03990
  39        2PX        -0.05677   0.08463  -0.06158  -0.02581   0.15898
  40        2PY         0.01114   0.07331   0.08366  -0.01004   0.06517
  41        2PZ        -0.17677  -0.01060   0.02433   0.06350   0.01016
  42        3S          0.20313   0.13285  -0.10767  -0.00743   0.11081
  43        3PX        -0.08707   0.12725  -0.09395  -0.04045   0.22947
  44        3PY         0.01743   0.11460   0.13111  -0.01591   0.09817
  45        3PZ        -0.25669  -0.00814   0.03150   0.09348   0.01600
  46        4S          0.26110   0.18079  -0.12299  -0.05610   0.28376
  47        4PX        -0.05287   0.06636  -0.05282  -0.01655   0.18513
  48        4PY         0.01018   0.07303   0.08004  -0.01046   0.09672
  49        4PZ        -0.09639  -0.00707   0.02482   0.05531   0.03684
  50        5D 0       -0.01796   0.01106  -0.00647   0.00208   0.00139
  51        5D+1        0.01729   0.01553  -0.01491  -0.01226   0.00010
  52        5D-1        0.00136   0.01339   0.01863  -0.00071  -0.00002
  53        5D+2        0.00924  -0.00963   0.00777   0.00248  -0.01274
  54        5D-2       -0.00026  -0.00773  -0.01130   0.00036   0.00029
  55 4   H  1S          0.15857  -0.00919  -0.00571  -0.02666  -0.08983
  56        2S          0.19183  -0.02333  -0.00415  -0.03436  -0.15444
  57        3S          0.03499  -0.00290  -0.00317  -0.01366  -0.05055
  58        4PX         0.01815   0.00347  -0.00469  -0.00340  -0.00047
  59        4PY         0.00084   0.00561   0.00691  -0.00092   0.00569
  60        4PZ         0.00964  -0.00612   0.00355   0.00291  -0.01504
  61 5   H  1S          0.01855   0.03914  -0.00273  -0.01654   0.11417
  62        2S          0.02474   0.05382  -0.00627  -0.02854   0.18000
  63        3S          0.01207   0.02798  -0.00311  -0.01319   0.14569
  64        4PX        -0.00254  -0.00188  -0.00051   0.00111  -0.00188
  65        4PY        -0.00235  -0.00223   0.00199   0.00144  -0.00332
  66        4PZ        -0.00121   0.00178   0.00030  -0.00026   0.00082
                          11        12        13        14        15
                           O         O         V         V         V
     Eigenvalues --    -0.32387  -0.21382  -0.03797   0.00689   0.03827
   1 1   N  1S         -0.00597  -0.01011  -0.00503   0.00235  -0.00907
   2        2S         -0.00982  -0.01650  -0.00764   0.00381  -0.01465
   3        2PX         0.02034  -0.03727  -0.20773  -0.01991  -0.03343
   4        2PY        -0.02211  -0.05973   0.00047   0.22868  -0.01079
   5        2PZ        -0.01723  -0.03198  -0.03656  -0.00700  -0.01940
   6        3S          0.03351   0.04710   0.00404  -0.00985   0.02670
   7        3PX         0.03134  -0.05792  -0.32416  -0.02953  -0.04314
   8        3PY        -0.03123  -0.09257   0.00019   0.35434  -0.01326
   9        3PZ        -0.02508  -0.04457  -0.04072  -0.01378  -0.05760
  10        4S          0.01545   0.09051   0.21011  -0.05845   0.15150
  11        4PX         0.01517  -0.06770  -0.42104  -0.05216  -0.17995
  12        4PY        -0.03193  -0.11334   0.00648   0.55182  -0.04179
  13        4PZ         0.00609  -0.07649  -0.24717  -0.00824   0.26280
  14        5D 0        0.00621   0.00135   0.00245   0.00399  -0.02820
  15        5D+1        0.02166   0.02053   0.02576   0.00263   0.00297
  16        5D-1       -0.04518   0.02917  -0.00391  -0.00835  -0.00293
  17        5D+2       -0.00455  -0.00465  -0.00459   0.00076   0.00562
  18        5D-2        0.00964  -0.00486   0.00120  -0.00116   0.00139
  19 2   N  1S          0.00014   0.00304   0.00238  -0.00086   0.01294
  20        2S          0.00025   0.00527   0.00425  -0.00144   0.02154
  21        2PX         0.07266   0.08235   0.20496   0.02155   0.03316
  22        2PY        -0.15563   0.11293  -0.00557  -0.19014   0.00925
  23        2PZ         0.02640   0.02338   0.03762   0.00403   0.04862
  24        3S         -0.00222  -0.02338  -0.01958   0.00548  -0.09135
  25        3PX         0.10873   0.12165   0.29356   0.03008   0.05102
  26        3PY        -0.23206   0.16542  -0.00700  -0.26975   0.01397
  27        3PZ         0.03784   0.03437   0.05723   0.00499   0.07182
  28        4S         -0.00081   0.03570   0.10010   0.00321  -0.27594
  29        4PX         0.10480   0.15187   0.48483   0.05645   0.08766
  30        4PY        -0.21998   0.20671  -0.01890  -0.49509   0.03236
  31        4PZ         0.03586   0.01405   0.03533   0.01503   0.16725
  32        5D 0       -0.00428  -0.00281  -0.00068   0.00111   0.00283
  33        5D+1       -0.00928  -0.00377   0.00860   0.00056   0.00045
  34        5D-1        0.01800  -0.00524   0.00053  -0.01342   0.00037
  35        5D+2        0.00020   0.00049  -0.00083   0.00069   0.00089
  36        5D-2       -0.00215   0.00062   0.00028   0.00110  -0.00021
  37 3   N  1S          0.02530   0.03326  -0.02329   0.00729   0.03396
  38        2S          0.04066   0.05354  -0.03700   0.01161   0.05362
  39        2PX        -0.10619  -0.05618   0.08649  -0.00181   0.13591
  40        2PY         0.19112  -0.09235   0.02501  -0.17145   0.03620
  41        2PZ         0.02148   0.00293  -0.05875   0.01251   0.03135
  42        3S         -0.12372  -0.16587   0.09402  -0.02989  -0.14537
  43        3PX        -0.15392  -0.07446   0.11564  -0.00400   0.18330
  44        3PY         0.28132  -0.13698   0.04154  -0.23975   0.05181
  45        3PZ         0.02868  -0.00612  -0.08588   0.01573  -0.00334
  46        4S         -0.15556  -0.30631   0.26393  -0.13230  -0.55521
  47        4PX        -0.16635  -0.11112   0.20152   0.00639   0.37561
  48        4PY         0.31546  -0.16475   0.04778  -0.45723   0.08730
  49        4PZ         0.03949   0.00778  -0.20450   0.03928   0.36668
  50        5D 0       -0.00432  -0.00813  -0.01133  -0.00020   0.00837
  51        5D+1       -0.00666  -0.01241  -0.02033  -0.00479   0.00762
  52        5D-1        0.00907  -0.01566   0.00254   0.01992   0.00191
  53        5D+2        0.00761   0.00330  -0.00051   0.00259  -0.00301
  54        5D-2       -0.01413   0.01616  -0.00124   0.00491  -0.00408
  55 4   H  1S          0.03082  -0.00041  -0.08729  -0.00092   0.04546
  56        2S          0.04071  -0.01095  -0.18786  -0.00828  -0.04458
  57        3S          0.01822   0.02654  -0.33161   0.10731   1.55997
  58        4PX        -0.00629  -0.00450   0.00423  -0.00121  -0.01856
  59        4PY         0.01829  -0.00789   0.00176  -0.02330   0.00328
  60        4PZ         0.00663   0.00184   0.00315   0.00044  -0.02416
  61 5   H  1S          0.06387   0.19504  -0.04241   0.03699  -0.03818
  62        2S          0.09614   0.37354  -0.08273   0.06545  -0.08159
  63        3S          0.09238   0.46891  -0.16261   0.24804  -0.25640
  64        4PX        -0.00178   0.00190  -0.00240   0.00746  -0.00208
  65        4PY         0.00517   0.00501  -0.00974   0.00433  -0.00404
  66        4PZ        -0.00079  -0.00345   0.00204   0.00031  -0.00209
                          16        17        18        19        20
                           V         V         V         V         V
     Eigenvalues --     0.22176   0.25984   0.36373   0.41924   0.45577
   1 1   N  1S         -0.06693   0.02521  -0.00103   0.00840   0.04715
   2        2S         -0.10883   0.04241   0.00063   0.01882   0.08919
   3        2PX         0.06237  -0.04295  -0.07275   0.01354   0.05336
   4        2PY         0.01454  -0.04286  -0.00003   0.00173   0.01481
   5        2PZ        -0.06261   0.02287   0.02040   0.15703  -0.05034
   6        3S          0.26554  -0.15308  -0.07454  -0.22434  -0.64446
   7        3PX         0.09541  -0.06459  -0.13535   0.06316   0.13021
   8        3PY         0.02899  -0.07645  -0.01078  -0.01241   0.04636
   9        3PZ        -0.10457   0.00868   0.07024   0.26062  -0.02407
  10        4S          2.56328  -0.74359   0.25395   1.25713  -1.88828
  11        4PX         0.38373  -0.22468  -0.36904  -0.96087   0.08024
  12        4PY         0.09671  -0.04121   0.02261   0.04678  -0.08151
  13        4PZ        -0.35652   0.46929  -0.08145   4.82540  -1.81211
  14        5D 0       -0.05959   0.00977  -0.01993  -0.01172  -0.00749
  15        5D+1        0.02165  -0.01073  -0.01157   0.01140   0.01729
  16        5D-1       -0.00388  -0.01068   0.00276   0.00450   0.00179
  17        5D+2       -0.00459   0.00114   0.02569  -0.01139  -0.00332
  18        5D-2        0.00074   0.00421   0.00194  -0.00211  -0.00068
  19 2   N  1S          0.04342  -0.00551   0.01293   0.04611   0.00208
  20        2S          0.07362  -0.00851   0.02287   0.07875   0.01443
  21        2PX        -0.05079   0.00565  -0.00473  -0.00869  -0.01960
  22        2PY        -0.00535   0.00122  -0.00178  -0.01022   0.00317
  23        2PZ         0.13814  -0.03249   0.03254   0.02048   0.06286
  24        3S         -0.29536   0.01187  -0.10269  -0.26134  -0.32021
  25        3PX        -0.07079  -0.01631  -0.06709  -0.01043  -0.04020
  26        3PY        -0.00661  -0.01842  -0.00437  -0.03688   0.03071
  27        3PZ         0.20720  -0.03737   0.04586   0.03958   0.33641
  28        4S         -0.56209  -0.07704  -0.07945  -4.72550   2.87102
  29        4PX        -0.22915   0.12670   0.26549  -0.19359   0.21798
  30        4PY        -0.03021   0.07685  -0.00158   0.19023  -0.12753
  31        4PZ         0.53907  -0.07406   0.16934   2.67861  -2.20582
  32        5D 0        0.00191  -0.00083   0.00270  -0.00597  -0.04183
  33        5D+1       -0.00813   0.00584   0.01468  -0.01031  -0.01017
  34        5D-1       -0.00254   0.00738   0.00024  -0.00032  -0.00958
  35        5D+2        0.00010  -0.00136   0.00127   0.00032   0.00306
  36        5D-2       -0.00067   0.00182   0.00148  -0.00085   0.00059
  37 3   N  1S          0.04524  -0.01649   0.02503  -0.01565   0.01119
  38        2S          0.07496  -0.02734   0.04457  -0.01925   0.02468
  39        2PX         0.02949  -0.00011   0.10319  -0.01680  -0.02607
  40        2PY         0.01275   0.03091  -0.01701  -0.02226   0.00047
  41        2PZ        -0.20711   0.04481   0.05865  -0.06455  -0.09847
  42        3S         -0.23593   0.09781  -0.18325  -0.16048  -0.20243
  43        3PX         0.05974   0.02229   0.22449   0.00774  -0.03137
  44        3PY         0.02824   0.07466  -0.04459  -0.03323   0.02085
  45        3PZ        -0.30251   0.04735   0.06872  -0.28127  -0.41102
  46        4S         -1.21614   0.39678  -0.48689   4.15650  -0.51662
  47        4PX         0.22579  -0.22840   0.77104  -1.36828   0.21762
  48        4PY        -0.00630  -0.16360   0.03396  -0.19026   0.01825
  49        4PZ        -1.14174   0.58590   0.83832   2.18691   0.40066
  50        5D 0        0.02425  -0.00810  -0.00289  -0.01833  -0.02834
  51        5D+1        0.00559   0.00223   0.01511   0.02853   0.01552
  52        5D-1        0.00208   0.00448   0.00127   0.00302   0.00671
  53        5D+2       -0.00462   0.00431   0.01042  -0.00183  -0.00869
  54        5D-2       -0.00640  -0.01537   0.00701   0.00404   0.00124
  55 4   H  1S          0.01624  -0.00614   0.12880  -0.02858  -0.01621
  56        2S          0.15538   0.09048   1.96359  -0.83100  -0.02141
  57        3S         -0.58982  -0.20777  -0.90873   0.36231   0.05932
  58        4PX         0.02921   0.00854  -0.01136  -0.03028   0.00241
  59        4PY         0.00725   0.02560  -0.00820  -0.00616  -0.00741
  60        4PZ        -0.02092   0.00362   0.03029  -0.01910   0.03514
  61 5   H  1S         -0.03225  -0.12032   0.01868  -0.00005   0.00736
  62        2S         -0.33163  -1.23225   0.13875   0.12891   0.11626
  63        3S          0.40921   1.70411  -0.03777  -0.00764  -0.15310
  64        4PX         0.00202   0.00060   0.02980  -0.02948  -0.00520
  65        4PY        -0.00384  -0.00101  -0.00336   0.01111  -0.00686
  66        4PZ        -0.01027   0.00948   0.03488   0.04147   0.03069
                          21        22        23        24        25
                           V         V         V         V         V
     Eigenvalues --     0.50113   0.52959   0.60116   0.64578   0.67570
   1 1   N  1S         -0.00612  -0.00239   0.01453   0.03199   0.03986
   2        2S         -0.01172  -0.00429   0.02848   0.06223   0.07704
   3        2PX         0.05357  -0.09211   0.01830  -0.03735   0.06328
   4        2PY        -0.10253  -0.05767  -0.01979  -0.05444   0.07468
   5        2PZ        -0.02103  -0.02554   0.03961  -0.04080  -0.07605
   6        3S          0.07605   0.02745  -0.19113  -0.39101  -0.48760
   7        3PX         0.21303  -0.39640   0.08142  -0.07860   0.26222
   8        3PY        -0.41264  -0.23535  -0.07506  -0.18202   0.26614
   9        3PZ        -0.02634  -0.10723   0.10857  -0.31104  -0.36613
  10        4S         -0.34360  -0.17914   0.72100   0.75394   0.48897
  11        4PX        -0.18790   0.52547  -0.13921   0.09709  -0.62262
  12        4PY         0.49888   0.31052   0.18479   0.34721  -0.68580
  13        4PZ        -0.28392   0.45833  -1.18107   0.25459   1.03376
  14        5D 0       -0.00451  -0.00678   0.02598   0.01414  -0.00943
  15        5D+1        0.00251  -0.01597   0.03988   0.01133  -0.04655
  16        5D-1       -0.00542  -0.01333  -0.05283   0.03079  -0.02360
  17        5D+2        0.00656  -0.00584   0.00488   0.00749   0.00637
  18        5D-2       -0.00593  -0.00705   0.01112  -0.01233   0.00992
  19 2   N  1S         -0.00722   0.00153   0.01421   0.04749   0.04588
  20        2S         -0.01272   0.00292   0.02699   0.09169   0.09010
  21        2PX         0.06311  -0.14409   0.07719   0.07722  -0.05788
  22        2PY        -0.11216  -0.07963  -0.11236   0.08891  -0.07946
  23        2PZ         0.02047  -0.00912  -0.01300  -0.10416  -0.13860
  24        3S          0.04725  -0.03122  -0.15561  -0.66265  -0.69861
  25        3PX         0.22769  -0.50988   0.26698   0.25075  -0.22156
  26        3PY        -0.40676  -0.28698  -0.39781   0.30826  -0.28091
  27        3PZ         0.07738  -0.03041  -0.06861  -0.33506  -0.37978
  28        4S          0.36543  -0.19071   0.75065   0.40980   0.02284
  29        4PX        -0.23186   0.57455  -0.30982  -0.37742   0.55768
  30        4PY         0.42723   0.34293   0.54736  -0.59131   0.66929
  31        4PZ        -0.37274   0.05402  -0.06296   0.26192   0.37472
  32        5D 0       -0.00455   0.00661  -0.00541  -0.00838  -0.02455
  33        5D+1       -0.01641   0.03413  -0.01288   0.00162   0.01547
  34        5D-1        0.03215   0.02165   0.02222  -0.00809   0.00475
  35        5D+2       -0.00032  -0.00442   0.00495   0.00261  -0.00397
  36        5D-2       -0.00380  -0.00177  -0.00422   0.00267   0.00119
  37 3   N  1S         -0.00544   0.00475   0.01382  -0.01196  -0.00780
  38        2S         -0.01039   0.00938   0.02448  -0.02310  -0.01409
  39        2PX         0.07991  -0.07731  -0.12933  -0.09836   0.06872
  40        2PY        -0.10869  -0.03287   0.10940  -0.09396   0.02131
  41        2PZ        -0.00944  -0.03190   0.03258   0.02107   0.05225
  42        3S          0.06281  -0.07516  -0.07234   0.22834   0.10467
  43        3PX         0.24938  -0.26008  -0.42576  -0.31323   0.23463
  44        3PY        -0.39809  -0.11931   0.40376  -0.36500   0.07027
  45        3PZ         0.00115  -0.08204   0.05888   0.03474   0.14623
  46        4S         -0.05328   0.32003  -1.31925  -0.74785   0.70671
  47        4PX        -0.25204   0.06570   1.32111   0.85351  -0.49392
  48        4PY         0.42500   0.10297  -0.60665   0.53989   0.04343
  49        4PZ        -0.15572   0.14760  -0.29249  -0.08845  -0.24805
  50        5D 0        0.01899  -0.00866  -0.03465  -0.02685   0.01043
  51        5D+1        0.01146  -0.01736  -0.02068  -0.01558   0.02817
  52        5D-1       -0.02085  -0.00552   0.02191  -0.01718   0.00645
  53        5D+2       -0.00321  -0.00077   0.00975   0.00312  -0.00462
  54        5D-2        0.00805   0.00369  -0.00297  -0.00403  -0.00103
  55 4   H  1S          0.00848  -0.02492  -0.00321  -0.00887   0.01373
  56        2S         -0.00692  -0.32188   0.55518   0.33653  -0.09837
  57        3S         -0.16666   0.51127   0.04062   0.32529  -0.37345
  58        4PX        -0.00891   0.02835   0.00850   0.06738  -0.02488
  59        4PY        -0.00259  -0.00247  -0.01741   0.02804  -0.01142
  60        4PZ        -0.02534  -0.01125   0.10394   0.05113  -0.04385
  61 5   H  1S          0.00350   0.01760   0.00954   0.01597   0.01699
  62        2S         -0.04831   0.10567   0.09634  -0.14893   0.02414
  63        3S         -0.04249  -0.36381  -0.14449  -0.20622   0.09134
  64        4PX        -0.01501  -0.01016   0.06542   0.02317  -0.00648
  65        4PY         0.02374   0.00411  -0.05347   0.00449   0.01147
  66        4PZ         0.00244   0.02254   0.01349   0.01058  -0.07144
                          26        27        28        29        30
                           V         V         V         V         V
     Eigenvalues --     0.68792   0.74118   0.77913   0.90946   1.01888
   1 1   N  1S         -0.00052   0.02277  -0.04516  -0.00178   0.00403
   2        2S         -0.00095   0.04512  -0.08838  -0.00275   0.00476
   3        2PX        -0.16177  -0.02516   0.04238  -0.05161   0.07348
   4        2PY         0.06973  -0.14562  -0.04737  -0.01407   0.01253
   5        2PZ        -0.06173  -0.01949  -0.13892   0.25618  -0.17291
   6        3S         -0.00077  -0.34442   0.69147  -0.07155   0.01994
   7        3PX        -0.54117  -0.10501   0.15550   0.01137   0.23925
   8        3PY         0.23405  -0.50644  -0.16609  -0.02860   0.04343
   9        3PZ        -0.25967  -0.02599  -0.53312   0.19004  -0.40795
  10        4S         -0.41163   0.31820  -1.80559   1.47171   0.83408
  11        4PX         1.19109   0.48509  -1.01748  -0.79141  -2.43471
  12        4PY        -0.58695   1.52866   0.51826   0.11903  -0.17585
  13        4PZ         2.28853   0.59981   2.87177   3.53137   9.42409
  14        5D 0       -0.01408  -0.01317  -0.03197  -0.03880   0.00091
  15        5D+1        0.00593  -0.01223   0.00379  -0.10259  -0.05607
  16        5D-1       -0.01385  -0.00374  -0.01181  -0.03917  -0.00598
  17        5D+2       -0.02353  -0.01942   0.01704   0.01860  -0.02750
  18        5D-2        0.00436  -0.00547   0.00784   0.00841   0.00359
  19 2   N  1S          0.00580   0.01429  -0.00657   0.03713  -0.04489
  20        2S          0.01116   0.02924  -0.01496   0.06711  -0.08954
  21        2PX         0.12357  -0.00013   0.00438  -0.00602   0.02781
  22        2PY        -0.05895   0.06326   0.01432   0.02158   0.00937
  23        2PZ         0.01103  -0.03994  -0.02721   0.23284  -0.05107
  24        3S         -0.10318  -0.23784   0.05521  -0.34861   0.71165
  25        3PX         0.43125   0.00918  -0.00341  -0.06143  -0.00370
  26        3PY        -0.20797   0.24029   0.05357   0.04738   0.01956
  27        3PZ         0.08986  -0.05480  -0.12929   0.66032   0.16447
  28        4S         -1.33031  -0.22787  -1.58634  -3.26594  -8.77251
  29        4PX        -1.15944  -0.20371   0.20760   0.12932   0.10636
  30        4PY         0.54979  -0.85930  -0.20339   0.03841   0.28946
  31        4PZ         0.23634   0.13208   0.52382   0.82285   3.30936
  32        5D 0       -0.00767  -0.02834   0.02897   0.06125  -0.06762
  33        5D+1       -0.00236  -0.00018   0.00688   0.04082   0.07569
  34        5D-1        0.00238  -0.00750   0.00171   0.02145   0.01804
  35        5D+2       -0.00483  -0.00443   0.00544  -0.00447  -0.00874
  36        5D-2       -0.00078  -0.00589   0.00021  -0.00100   0.00695
  37 3   N  1S         -0.00359   0.02835  -0.04816  -0.05704   0.06335
  38        2S         -0.00520   0.05589  -0.09502  -0.10716   0.12684
  39        2PX         0.04889   0.07432   0.02040  -0.08006  -0.04268
  40        2PY         0.01254   0.10475   0.08535   0.00117  -0.02388
  41        2PZ         0.00103   0.07893  -0.17168   0.16801   0.00010
  42        3S         -0.05979  -0.47856   0.73284   0.68300  -1.12778
  43        3PX         0.14591   0.22660   0.08492  -0.16261  -0.33323
  44        3PY         0.05991   0.43858   0.30444   0.01171  -0.05469
  45        3PZ        -0.02811   0.15908  -0.34222   0.49254   0.12546
  46        4S          1.87541   1.38458   1.16097   1.57401   8.79384
  47        4PX        -1.37110  -1.19228  -0.12340  -0.32183  -1.43400
  48        4PY        -0.03260  -1.20783  -0.77063  -0.17384  -0.16038
  49        4PZ         0.54916  -0.52535   2.07509   0.24582   2.85561
  50        5D 0        0.00796  -0.01284   0.07316   0.00211   0.09041
  51        5D+1        0.02315   0.04927  -0.05887   0.07554   0.07000
  52        5D-1        0.00712   0.01806   0.01179   0.03266   0.01583
  53        5D+2       -0.00726  -0.00902  -0.00251  -0.03417  -0.03511
  54        5D-2        0.00225   0.01190   0.01358  -0.02084  -0.02082
  55 4   H  1S          0.03628   0.02884   0.00259   0.04901   0.08748
  56        2S         -0.53183  -0.62708   0.42204  -0.16972  -0.83484
  57        3S          0.08721  -0.55604   0.71456   0.10703  -0.08320
  58        4PX         0.01158  -0.11786   0.16890   0.10463  -0.02475
  59        4PY        -0.00976  -0.05859  -0.05059  -0.02297   0.02814
  60        4PZ        -0.15621  -0.12286   0.01839  -0.06567  -0.32646
  61 5   H  1S         -0.00399  -0.01803   0.00421   0.02953   0.02427
  62        2S          0.12212   0.37094   0.30271   0.06794  -0.24728
  63        3S          0.03645  -0.01943   0.08581  -0.03156   0.09810
  64        4PX        -0.05698  -0.05308   0.08530   0.02824  -0.13692
  65        4PY         0.04048  -0.00377   0.04522   0.07609   0.04856
  66        4PZ         0.01282   0.03319   0.04259  -0.07903   0.14137
                          31        32        33        34        35
                           V         V         V         V         V
     Eigenvalues --     1.12325   1.21958   1.36612   1.40808   1.43529
   1 1   N  1S          0.07948  -0.00769  -0.00508  -0.00043  -0.00241
   2        2S          0.15333  -0.01501  -0.01083  -0.00142  -0.00436
   3        2PX        -0.01897  -0.00276  -0.00187  -0.00303   0.00257
   4        2PY        -0.02495  -0.00497  -0.01789   0.00487  -0.01058
   5        2PZ        -0.10858  -0.00710  -0.07215  -0.03027  -0.03325
   6        3S         -1.35323   0.15200   0.04954  -0.00990   0.03540
   7        3PX        -0.04777   0.00307   0.01841  -0.00904  -0.02037
   8        3PY        -0.04065  -0.04108  -0.02949   0.00435   0.05207
   9        3PZ         0.01005  -0.02412  -0.26887  -0.18363  -0.09895
  10        4S          7.20308  -1.04405   1.00903   0.72504   0.40916
  11        4PX         0.31194  -0.21444  -0.71612  -0.54855  -0.18459
  12        4PY         0.29492   0.22847   0.16300   0.04317  -0.26382
  13        4PZ         0.96926   0.67257   4.22875   4.64385   1.70134
  14        5D 0        0.22575  -0.05271   0.02233   0.01935   0.03363
  15        5D+1       -0.07857  -0.00992   0.01156   0.01969   0.14323
  16        5D-1        0.00271   0.02237   0.01191   0.00901  -0.42434
  17        5D+2        0.02226   0.01255   0.05485  -0.10694  -0.01937
  18        5D-2       -0.00895  -0.12831  -0.01165  -0.02876   0.09446
  19 2   N  1S         -0.07044   0.00460  -0.01397  -0.00590  -0.00377
  20        2S         -0.13482   0.00833  -0.02923  -0.01318  -0.00861
  21        2PX         0.01217   0.00667   0.01253  -0.00597  -0.01851
  22        2PY        -0.00673  -0.01287   0.00344   0.00277   0.07778
  23        2PZ        -0.13234   0.00833   0.00801   0.02706   0.00088
  24        3S          1.14201  -0.08270   0.27422   0.15126   0.08155
  25        3PX        -0.00219   0.01366   0.01012  -0.01731  -0.03578
  26        3PY         0.00422  -0.01554   0.01233   0.00665   0.12487
  27        3PZ         0.04259  -0.01234   0.09188   0.14616   0.01863
  28        4S         -4.87156  -0.04670  -4.11925  -4.20631  -1.57277
  29        4PX        -0.37807   0.04415  -0.14898  -0.18782  -0.08158
  30        4PY         0.00843  -0.07003   0.02955   0.08936   0.12432
  31        4PZ         2.34284  -0.03993   1.57796   1.55079   0.58692
  32        5D 0       -0.16365   0.01789  -0.01855  -0.02156  -0.04330
  33        5D+1        0.02369   0.01841   0.02265  -0.02263  -0.07404
  34        5D-1       -0.01906  -0.03557  -0.01123  -0.00189   0.28889
  35        5D+2        0.00060   0.00419   0.01938  -0.03732  -0.01179
  36        5D-2       -0.00291  -0.02409   0.00114  -0.01027  -0.01453
  37 3   N  1S         -0.03084   0.01007   0.00202   0.00305   0.00967
  38        2S         -0.06010   0.02224   0.00210   0.00759   0.02189
  39        2PX        -0.00327   0.02635   0.00665   0.02322   0.05172
  40        2PY         0.01622   0.01629   0.00105  -0.03087  -0.06086
  41        2PZ         0.00547  -0.01892  -0.03778   0.01378  -0.01832
  42        3S          0.63298  -0.25777  -0.02196  -0.16908  -0.24410
  43        3PX         0.12154  -0.05288  -0.05584   0.07712  -0.02537
  44        3PY         0.02009  -0.00139   0.03569  -0.02189  -0.16680
  45        3PZ        -0.08767  -0.01376  -0.07666   0.07645   0.06883
  46        4S         -2.71175   1.39894   2.80567   3.68106   1.63026
  47        4PX         0.40960  -0.21832  -0.48410  -1.34043  -0.21136
  48        4PY        -0.03310  -0.38364  -0.21801  -0.19483   0.33638
  49        4PZ        -1.06991   0.45120   1.21230   1.08220   0.10272
  50        5D 0       -0.01099   0.02372  -0.04852  -0.05814  -0.02240
  51        5D+1        0.04646   0.03456  -0.00095  -0.07071  -0.09875
  52        5D-1        0.01322  -0.13497  -0.06345  -0.03612   0.34470
  53        5D+2       -0.01062   0.02486   0.09409  -0.02437   0.14140
  54        5D-2       -0.02571  -0.28210   0.03085   0.04761  -0.19708
  55 4   H  1S         -0.01532   0.04170   0.09729  -0.06452  -0.05518
  56        2S          0.41689  -0.27386  -0.17458  -0.47981  -0.20210
  57        3S         -0.02056   0.03582   0.11832  -0.01564  -0.02178
  58        4PX         0.17137  -0.08041  -0.33280  -0.12745  -0.23015
  59        4PY         0.00657   0.76152  -0.10557   0.13630  -0.10161
  60        4PZ        -0.00832  -0.00352   0.28645   0.00595   0.20613
  61 5   H  1S          0.00395   0.05545   0.00123   0.00156   0.02352
  62        2S          0.22062   0.11673  -0.04071   0.01153  -0.09940
  63        3S         -0.15673  -0.14773   0.10762   0.12827  -0.13731
  64        4PX         0.13844   0.14458  -0.36680   0.63366   0.25823
  65        4PY         0.09292   0.26380  -0.21503  -0.71135   0.30644
  66        4PZ        -0.11711  -0.21705  -0.73276  -0.00032  -0.03237
                          36        37        38        39        40
                           V         V         V         V         V
     Eigenvalues --     1.50913   1.65008   1.66222   1.70773   1.83749
   1 1   N  1S         -0.00989  -0.00107   0.00030   0.00028   0.00592
   2        2S         -0.02029  -0.00156   0.00032  -0.00058   0.01310
   3        2PX        -0.01191  -0.03175  -0.00078   0.00637   0.05667
   4        2PY        -0.02135   0.00639  -0.02287  -0.00200   0.00067
   5        2PZ         0.01192  -0.04774   0.00062   0.06572   0.01168
   6        3S          0.29603   0.00921  -0.00958   0.05341  -0.12250
   7        3PX        -0.00126  -0.05480   0.00421   0.01453   0.01662
   8        3PY         0.00270   0.00390  -0.03522  -0.00405   0.00568
   9        3PZ         0.20487  -0.05132  -0.03790   0.02738   0.05478
  10        4S         -3.75138   0.33602   0.31600  -1.12544   0.53597
  11        4PX         0.36172   0.20034  -0.18736  -0.71673   0.28947
  12        4PY        -0.18830  -0.02334   0.04823   0.05932  -0.12597
  13        4PZ        -3.70358   0.94368   0.86686   1.28614  -0.72359
  14        5D 0       -0.17607  -0.07029   0.01311   0.13577  -0.05774
  15        5D+1       -0.20517  -0.01190   0.02001   0.39781  -0.24564
  16        5D-1       -0.13112   0.07044   0.20657  -0.02940   0.06695
  17        5D+2       -0.01953   0.60936  -0.19372   0.26070   0.11648
  18        5D-2        0.11795   0.17441   0.66238   0.06138  -0.01986
  19 2   N  1S          0.00855  -0.00372  -0.00058   0.00688   0.00052
  20        2S          0.01719  -0.00873  -0.00138   0.01456   0.00088
  21        2PX         0.04370   0.01766  -0.01097  -0.06646   0.05800
  22        2PY         0.02937  -0.00511  -0.02106   0.01325  -0.01171
  23        2PZ        -0.04049   0.00136   0.00887   0.01392   0.00675
  24        3S         -0.24324   0.07514   0.02543  -0.11716  -0.00313
  25        3PX         0.09103   0.02857  -0.02122  -0.10989   0.07989
  26        3PY         0.03933  -0.01039  -0.03388   0.02167  -0.01922
  27        3PZ        -0.23286  -0.01312   0.03608   0.06999   0.00481
  28        4S          4.71695  -0.89696  -0.86292  -0.61213   0.41661
  29        4PX         0.20404  -0.15450  -0.00246   0.21294  -0.14132
  30        4PY        -0.09153   0.04081   0.01958  -0.02158   0.04810
  31        4PZ        -1.86309   0.34449   0.32924   0.16756  -0.14980
  32        5D 0        0.04893  -0.00770  -0.00762  -0.02789   0.06983
  33        5D+1        0.14174   0.09074  -0.07970  -0.26455   0.35905
  34        5D-1        0.10488   0.01623  -0.06658   0.06007  -0.03476
  35        5D+2       -0.03887   0.41919  -0.12248   0.34502   0.20887
  36        5D-2        0.05116   0.13287   0.53102   0.03568   0.03283
  37 3   N  1S          0.03001   0.02039  -0.00268  -0.00840  -0.00922
  38        2S          0.06166   0.04320  -0.00516  -0.01443  -0.01572
  39        2PX        -0.02295   0.02730   0.00352  -0.03376  -0.11671
  40        2PY        -0.01918   0.00268   0.00390  -0.00771   0.01842
  41        2PZ        -0.04896   0.00949   0.00145   0.02621  -0.10556
  42        3S         -0.55689  -0.34578   0.01378  -0.01415   0.05646
  43        3PX        -0.03188   0.16861  -0.06323  -0.09340  -0.14083
  44        3PY        -0.09135  -0.00699  -0.02513   0.01925  -0.04730
  45        3PZ        -0.15351   0.17427   0.00721  -0.01863  -0.14071
  46        4S         -0.68576   0.98996   0.62515   1.48962  -0.71242
  47        4PX         0.21211  -0.62951  -0.00374  -0.08971   0.40282
  48        4PY         0.36585   0.01253  -0.04609  -0.20750   0.28198
  49        4PZ         0.25468  -0.29206   0.15307   1.31839  -0.36931
  50        5D 0        0.16402   0.10067  -0.03140  -0.09305   0.01448
  51        5D+1        0.19753   0.16719  -0.03719  -0.17990  -0.21501
  52        5D-1        0.12562  -0.00610   0.05426  -0.01166  -0.00685
  53        5D+2       -0.12453   0.13080  -0.00754  -0.08015  -0.27365
  54        5D-2       -0.04217   0.06351   0.08477  -0.01843  -0.01913
  55 4   H  1S          0.11829   0.16399  -0.02529  -0.34596  -0.73968
  56        2S         -0.25421  -0.70837   0.00291   0.71810   1.07651
  57        3S          0.14807   0.11817  -0.00182  -0.21389  -0.48770
  58        4PX         0.36832   0.09641  -0.10994   0.22519  -0.44731
  59        4PY        -0.14371   0.03320   0.17507   0.08096  -0.14602
  60        4PZ        -0.32204   0.38325   0.00025  -0.57259  -0.01939
  61 5   H  1S         -0.01340   0.00639  -0.01495  -0.00251  -0.23462
  62        2S         -0.03526  -0.01201   0.03124   0.03274   0.19490
  63        3S         -0.11273  -0.02344  -0.08166   0.09886  -0.16278
  64        4PX         0.24697   0.16873   0.04334  -0.10343   0.15495
  65        4PY        -0.06711  -0.03511   0.12772  -0.11141   0.22541
  66        4PZ        -0.51215   0.15599  -0.05147  -0.24111  -0.04817
                          41        42        43        44        45
                           V         V         V         V         V
     Eigenvalues --     1.86792   2.07329   2.09998   2.17072   2.23577
   1 1   N  1S         -0.00871   0.00101   0.00385   0.00117   0.00798
   2        2S         -0.01751   0.00304   0.00874   0.00241   0.02189
   3        2PX        -0.00077   0.01463   0.00204  -0.01753   0.13979
   4        2PY        -0.01026   0.05633   0.01903   0.12500   0.03254
   5        2PZ        -0.01043   0.01043   0.00000  -0.00851   0.07765
   6        3S          0.21441  -0.02051  -0.05514  -0.07289  -0.19188
   7        3PX         0.01247  -0.01131  -0.03407   0.00433  -0.01477
   8        3PY         0.01035   0.02379  -0.00339   0.02034  -0.00825
   9        3PZ        -0.09378   0.01872   0.02658   0.00931   0.04835
  10        4S         -0.91511  -0.06534   0.04426   0.50874  -0.46598
  11        4PX        -0.90704  -0.08677  -0.11647   0.18357   0.01857
  12        4PY        -0.50543   0.04390   0.18028   0.57685   0.17703
  13        4PZ         3.49502   0.55931   0.70188  -0.73494   1.38734
  14        5D 0       -0.00205   0.03212  -0.00807   0.04810   0.23176
  15        5D+1        0.20616   0.04104   0.07744  -0.05229  -0.00121
  16        5D-1        0.29198  -0.07514   0.00291  -0.10873   0.00687
  17        5D+2       -0.05873   0.18484   0.49052  -0.08886  -0.21429
  18        5D-2       -0.09846  -0.44550   0.24321   0.03306   0.07467
  19 2   N  1S          0.00225   0.00215   0.00043   0.00089   0.00954
  20        2S          0.00342   0.00459   0.00055   0.00271   0.02380
  21        2PX        -0.02959   0.00253   0.00816  -0.00958   0.01583
  22        2PY        -0.04507   0.00852   0.01171   0.02834   0.01172
  23        2PZ         0.03337   0.00964   0.01262  -0.00813   0.00362
  24        3S         -0.01933  -0.03184   0.00074  -0.01707  -0.20365
  25        3PX        -0.05497  -0.00170  -0.00245  -0.00233  -0.00156
  26        3PY        -0.07477   0.01741   0.01544   0.05121   0.02075
  27        3PZ         0.06811   0.04070   0.01853   0.01781   0.20368
  28        4S         -2.48397  -0.42054  -0.59815   0.39747  -0.80966
  29        4PX         0.09537  -0.02310  -0.03661   0.01482  -0.20235
  30        4PY         0.30155  -0.03563  -0.07155  -0.32128  -0.08440
  31        4PZ         0.86459   0.13843   0.22169  -0.11852   0.14964
  32        5D 0       -0.00275  -0.00177  -0.00519  -0.04711   0.22447
  33        5D+1       -0.12737  -0.02061  -0.03919  -0.03215   0.43690
  34        5D-1       -0.26465   0.21602   0.04625   0.52125   0.14618
  35        5D+2       -0.04180  -0.30922  -0.68570   0.07772   0.12185
  36        5D-2       -0.15589   0.69248  -0.32247  -0.04577  -0.05807
  37 3   N  1S          0.03281   0.00858   0.00538  -0.00452   0.02392
  38        2S          0.07009   0.02058   0.01681  -0.01487   0.05648
  39        2PX         0.02738  -0.01534  -0.07545   0.00125   0.04213
  40        2PY         0.05555   0.03505  -0.00649  -0.04246   0.02409
  41        2PZ         0.03498   0.00431  -0.03630   0.01806   0.04533
  42        3S         -0.74997  -0.19898  -0.19630   0.22052  -0.53686
  43        3PX        -0.07209   0.10344   0.16256  -0.09800   0.27509
  44        3PY        -0.15601   0.01441   0.03158   0.05053   0.02941
  45        3PZ         0.27630   0.09551   0.14453  -0.14924   0.09205
  46        4S          4.15058   0.49638   0.41756  -0.85763   1.38731
  47        4PX        -0.44833  -0.12431  -0.10017   0.13942  -0.58418
  48        4PY         0.72239   0.03882  -0.27767  -0.46658  -0.25859
  49        4PZ         1.16786   0.26183   0.35510  -0.40921   0.85161
  50        5D 0       -0.05205   0.00455   0.10843  -0.01711  -0.00288
  51        5D+1       -0.02898  -0.06769  -0.04667   0.09781  -0.41421
  52        5D-1       -0.06249  -0.34028  -0.01008  -0.28913  -0.10211
  53        5D+2        0.16705   0.09135  -0.01539  -0.08984   0.55116
  54        5D-2        0.06366  -0.17581   0.20286   0.50769   0.24613
  55 4   H  1S          0.01473  -0.20984  -0.56283   0.31425  -0.25859
  56        2S         -0.38302   0.36557   0.95634  -0.50481   0.49964
  57        3S          0.17725  -0.08994  -0.30675   0.19690  -0.10449
  58        4PX         0.17894   0.19410   0.17952  -0.17970   0.54258
  59        4PY        -0.37739  -0.28724   0.20835   0.31725   0.14599
  60        4PZ         0.06049   0.06246   0.14917  -0.08884   0.02551
  61 5   H  1S         -0.48413  -0.07989  -0.02817  -0.84798   0.26162
  62        2S          0.29074   0.08565   0.10571   1.15043  -0.22747
  63        3S         -0.47266  -0.02604   0.04842  -0.50823   0.16801
  64        4PX         0.49838   0.03229  -0.06699  -0.01214  -0.04567
  65        4PY         0.50830   0.00225  -0.04199   0.08077  -0.02617
  66        4PZ        -0.27206   0.00336  -0.02150   0.01993  -0.06323
                          46        47        48        49        50
                           V         V         V         V         V
     Eigenvalues --     2.35667   2.38690   2.47421   2.48485   2.65717
   1 1   N  1S         -0.00313  -0.00753   0.01416  -0.00576  -0.00093
   2        2S         -0.00719  -0.02130   0.04103  -0.01253  -0.01319
   3        2PX        -0.07425  -0.00543  -0.15253   0.02222  -0.09873
   4        2PY         0.14214  -0.05997  -0.03912   0.05534   0.00378
   5        2PZ        -0.04622  -0.05185  -0.00560   0.00586   0.15642
   6        3S          0.10066   0.21528  -0.29512   0.11856   0.22824
   7        3PX        -0.01138  -0.00673  -0.04672   0.05157  -0.10025
   8        3PY         0.01346   0.00305  -0.01413   0.02350   0.00537
   9        3PZ        -0.02269   0.02864  -0.01927  -0.08961   0.64622
  10        4S          0.25603   0.72192  -1.16003  -0.49625  -0.46024
  11        4PX        -0.43201  -0.20450  -0.61427  -0.12215  -0.38263
  12        4PY         0.17122   0.03057  -0.12337  -0.24246  -0.06209
  13        4PZ         0.52027  -0.02638   1.13323   0.40700   1.73782
  14        5D 0       -0.13870  -0.29020   0.25574   0.02685  -0.22000
  15        5D+1       -0.02301   0.08215  -0.19400   0.07208  -0.12346
  16        5D-1        0.14290  -0.12978  -0.02658   0.14709   0.00434
  17        5D+2       -0.26368  -0.22165  -0.09915   0.15809  -0.02564
  18        5D-2        0.21164  -0.28123  -0.17606  -0.25100  -0.02177
  19 2   N  1S         -0.00434  -0.00929   0.01068  -0.00080   0.00566
  20        2S         -0.01153  -0.02594   0.02942  -0.00105   0.00400
  21        2PX         0.00716  -0.00502   0.05234  -0.00690   0.01555
  22        2PY        -0.00228   0.00638   0.00633  -0.01382   0.01937
  23        2PZ         0.02812   0.06734  -0.08855  -0.01464   0.26044
  24        3S          0.11154   0.26413  -0.32043  -0.00483   0.11265
  25        3PX        -0.00839   0.01139  -0.05180  -0.00085  -0.00247
  26        3PY         0.00750  -0.01129   0.00065  -0.01232  -0.01217
[...]
  12        4PY         0.41897   0.21024   0.20872   0.00152
  13        4PZ         0.10361   0.05579   0.04783   0.00796
  14        5D 0        0.01233   0.00735   0.00498   0.00237
  15        5D+1        0.02401   0.01525   0.00876   0.00649
  16        5D-1        0.02214   0.01222   0.00992   0.00230
  17        5D+2        0.00230   0.00110   0.00120  -0.00010
  18        5D-2        0.00235   0.00112   0.00123  -0.00012
  19 2   N  1S          1.09590   0.54784   0.54806  -0.00021
  20        2S          0.89466   0.44733   0.44733   0.00000
  21        2PX         0.23819   0.16744   0.07076   0.09668
  22        2PY         0.22069   0.13799   0.08270   0.05529
  23        2PZ         0.27117   0.13828   0.13288   0.00540
  24        3S          0.97026   0.49693   0.47333   0.02360
  25        3PX         0.50956   0.34505   0.16451   0.18054
  26        3PY         0.48338   0.29326   0.19012   0.10315
  27        3PZ         0.55521   0.28651   0.26870   0.01781
  28        4S          0.91282   0.45795   0.45487   0.00308
  29        4PX         0.38865   0.25964   0.12901   0.13063
  30        4PY         0.35919   0.21183   0.14736   0.06447
  31        4PZ         0.21597   0.10312   0.11284  -0.00972
  32        5D 0        0.01534   0.00764   0.00770  -0.00006
  33        5D+1        0.01403   0.00662   0.00741  -0.00079
  34        5D-1        0.01460   0.00704   0.00756  -0.00052
  35        5D+2        0.00027   0.00014   0.00013   0.00001
  36        5D-2        0.00027   0.00011   0.00016  -0.00005
  37 3   N  1S          1.09527   0.54774   0.54753   0.00022
  38        2S          0.89513   0.44744   0.44768  -0.00024
  39        2PX         0.27517   0.13922   0.13595   0.00326
  40        2PY         0.30389   0.15136   0.15253  -0.00118
  41        2PZ         0.21735   0.11470   0.10265   0.01205
  42        3S          0.87489   0.44781   0.42707   0.02074
  43        3PX         0.61344   0.30913   0.30431   0.00482
  44        3PY         0.66446   0.33122   0.33324  -0.00202
  45        3PZ         0.52371   0.27361   0.25011   0.02350
  46        4S          0.60900   0.29287   0.31613  -0.02326
  47        4PX         0.43564   0.21476   0.22088  -0.00613
  48        4PY         0.53885   0.26594   0.27291  -0.00697
  49        4PZ         0.23642   0.11980   0.11662   0.00318
  50        5D 0        0.00822   0.00431   0.00391   0.00039
  51        5D+1        0.01187   0.00646   0.00541   0.00105
  52        5D-1        0.00425   0.00253   0.00172   0.00081
  53        5D+2        0.00311   0.00158   0.00154   0.00004
  54        5D-2        0.00401   0.00243   0.00158   0.00085
  55 4   H  1S          0.27269   0.13610   0.13659  -0.00049
  56        2S          0.39178   0.19447   0.19732  -0.00285
  57        3S          0.03483   0.01974   0.01509   0.00465
  58        4PX         0.01506   0.00747   0.00759  -0.00012
  59        4PY         0.01226   0.00608   0.00617  -0.00009
  60        4PZ         0.01208   0.00609   0.00599   0.00010
  61 5   H  1S          0.26601   0.13786   0.12815   0.00972
  62        2S          0.40634   0.21720   0.18913   0.02807
  63        3S          0.07388   0.05732   0.01656   0.04076
  64        4PX         0.01417   0.00715   0.00702   0.00013
  65        4PY         0.01862   0.00936   0.00926   0.00010
  66        4PZ         0.00581   0.00325   0.00255   0.00070
          Condensed to atoms (all electrons):
              1          2          3          4          5
     1  N    6.563635   0.368124   0.119055  -0.034364  -0.014816
     2  N    0.368124   6.854332  -0.074264   0.002597   0.009378
     3  N    0.119055  -0.074264   6.616053   0.369118   0.284706
     4  H   -0.034364   0.002597   0.369118   0.428712  -0.027355
     5  H   -0.014816   0.009378   0.284706  -0.027355   0.532913
 Mulliken atomic charges:
              1
     1  N   -0.001634
     2  N   -0.160167
     3  N   -0.314667
     4  H    0.261293
     5  H    0.215175
 Sum of Mulliken atomic charges =  -0.00000
 Mulliken charges with hydrogens summed into heavy atoms:
              1
     1  N   -0.001634
     2  N   -0.160167
     3  N    0.161800
 Sum of Mulliken charges with hydrogens summed into heavy atoms =  -0.00000
          Atomic-Atomic Spin Densities.
              1          2          3          4          5
     1  N    0.516082  -0.167940  -0.154563   0.004083   0.021233
     2  N   -0.167940   0.844849  -0.023008  -0.000075   0.015474
     3  N   -0.154563  -0.023008   0.304263   0.001305  -0.096867
     4  H    0.004083  -0.000075   0.001305  -0.007776   0.003666
     5  H    0.021233   0.015474  -0.096867   0.003666   0.135968
 Mulliken atomic spin densities:
              1
     1  N    0.218895
     2  N    0.669300
     3  N    0.031129
     4  H    0.001203
     5  H    0.079474
 Sum of Mulliken atomic spin densities =   1.00000
 APT atomic charges:
              1
     1  N   -0.148464
     2  N   -0.050543
     3  N   -0.746631
     4  H    0.527735
     5  H    0.417903
 Sum of APT charges=  -0.00000
 APT Atomic charges with hydrogens summed into heavy atoms:
              1
     1  N   -0.148464
     2  N   -0.050543
     3  N    0.199008
     4  H    0.000000
     5  H    0.000000
 Sum of APT charges=  -0.00000
 Electronic spatial extent (au):  <R**2>=            137.3249
 Charge=             -0.0000 electrons
 Dipole moment (field-independent basis, Debye):
    X=              0.3297    Y=              1.1754    Z=             -3.2894  Tot=              3.5086
 Quadrupole moment (field-independent basis, Debye-Ang):
   XX=            -17.0164   YY=            -16.9543   ZZ=            -16.7102
   XY=              1.0834   XZ=              1.0571   YZ=             -1.4376
 Traceless Quadrupole moment (field-independent basis, Debye-Ang):
   XX=             -0.1228   YY=             -0.0606   ZZ=              0.1834
   XY=              1.0834   XZ=              1.0571   YZ=             -1.4376
 Octapole moment (field-independent basis, Debye-Ang**2):
  XXX=              0.1204  YYY=              0.3565  ZZZ=            -11.1014  XYY=              0.7396
  XXY=              1.3854  XXZ=             -0.7459  XZZ=             -1.4788  YZZ=              1.0277
  YYZ=             -0.1445  XYZ=             -2.0652
 Hexadecapole moment (field-independent basis, Debye-Ang**3):
 XXXX=            -25.7015 YYYY=            -18.4341 ZZZZ=           -118.5939 XXXY=             -1.2563
 XXXZ=             11.7016 YYYX=             -1.5590 YYYZ=              1.6302 ZZZX=             16.1705
 ZZZY=              0.4295 XXYY=             -6.6616 XXZZ=            -24.0906 YYZZ=            -23.6539
 XXYZ=             -0.7689 YYXZ=              2.9551 ZZXY=              1.4107
 N-N= 6.592899928203D+01 E-N=-7.726906887711D+02  KE= 2.462661897434D+02
 Orbital energies and kinetic energies (alpha):
                                 1                 2
   1         O               -14.487338         22.041822
   2         O               -14.458094         22.046716
   3         O               -14.424262         22.040527
   4         O                -1.103204          2.320693
   5         O                -0.957728          2.205832
   6         O                -0.671528          1.962270
   7         O                -0.579210          1.418376
   8         O                -0.478437          1.662431
   9         O                -0.464762          2.053414
  10         O                -0.415954          1.894682
  11         O                -0.315351          1.834392
  12         O                -0.178343          2.156996
  13         V                 0.000507          2.115629
  14         V                 0.029304          0.923699
  15         V                 0.074194          0.758644
  16         V                 0.185873          2.830929
  17         V                 0.337204          1.426938
  18         V                 0.345221          1.449526
  19         V                 0.452096          1.643138
  20         V                 0.497299          1.959494
  21         V                 0.524290          1.843086
  22         V                 0.582343          1.834723
  23         V                 0.609650          1.845173
  24         V                 0.650692          2.181671
  25         V                 0.680195          1.824880
  26         V                 0.700961          2.421764
  27         V                 0.725123          2.648262
  28         V                 0.758708          2.310316
  29         V                 0.794457          2.207293
  30         V                 0.955550          3.243217
  31         V                 1.121701          3.220862
  32         V                 1.279688          2.310884
  33         V                 1.348853          2.359377
  34         V                 1.500589          2.267132
  35         V                 1.638681          2.962939
  36         V                 1.665447          2.798532
  37         V                 1.703770          3.046847
  38         V                 1.736564          3.052581
  39         V                 1.774323          3.129880
  40         V                 1.880011          3.389937
  41         V                 1.949841          3.419093
  42         V                 2.083994          3.503758
  43         V                 2.123580          3.507174
  44         V                 2.244141          3.779282
  45         V                 2.330467          3.722190
  46         V                 2.384709          3.800751
  47         V                 2.507607          4.020199
  48         V                 2.526355          4.140975
  49         V                 2.608986          4.349452
  50         V                 2.765920          4.792212
  51         V                 2.885012          5.377857
  52         V                 2.975261          4.833735
  53         V                 3.074359          5.550474
  54         V                 3.358915          6.376171
  55         V                 3.556056          8.642692
  56         V                 3.608381          8.734850
  57         V                 3.818284          8.725102
  58         V                 3.904844          8.805756
  59         V                 3.919902          8.856680
  60         V                 4.078658          9.558126
  61         V                 4.351589          9.023083
  62         V                 4.648455          9.271767
  63         V                 5.211103          9.989776
  64         V                35.047306         89.016640
  65         V                35.434068         88.975427
  66         V                35.897776         89.045781
 Orbital energies and kinetic energies (beta):
                                 1                 2
   1         O               -14.482100         22.044007
   2         O               -14.455626         22.046438
   3         O               -14.412323         22.058947
   4         O                -1.083384          2.288500
   5         O                -0.938016          2.199819
   6         O                -0.654796          1.950699
   7         O                -0.570032          1.395187
   8         O                -0.468596          1.614037
   9         O                -0.426170          2.102305
  10         O                -0.377726          1.792250
  11         O                -0.306675          1.821830
  12         V                -0.040074          1.785496
  13         V                 0.014710          2.011349
  14         V                 0.035283          1.076420
  15         V                 0.078545          0.823363
  16         V                 0.197000          2.750935
  17         V                 0.339158          1.413478
  18         V                 0.345720          1.487866
  19         V                 0.455644          1.601842
  20         V                 0.501718          1.988036
  21         V                 0.526069          1.857778
  22         V                 0.593167          1.861504
  23         V                 0.612749          1.865991
  24         V                 0.655023          2.183492
  25         V                 0.687288          1.893694
  26         V                 0.713253          2.252653
  27         V                 0.735702          2.771387
  28         V                 0.763866          2.428889
  29         V                 0.796504          2.237327
  30         V                 0.960192          3.336920
  31         V                 1.122816          3.246008
  32         V                 1.278401          2.309191
  33         V                 1.345462          2.349858
  34         V                 1.493476          2.266328
  35         V                 1.640728          2.928359
  36         V                 1.664703          2.819866
  37         V                 1.714188          3.066450
  38         V                 1.753815          3.079241
  39         V                 1.787244          3.127375
  40         V                 1.891341          3.408309
  41         V                 1.963749          3.460359
  42         V                 2.113203          3.486017
  43         V                 2.145033          3.503547
  44         V                 2.252214          3.735646
  45         V                 2.317992          3.749690
  46         V                 2.391415          3.779265
  47         V                 2.507266          4.022032
  48         V                 2.535751          4.151119
  49         V                 2.616909          4.369747
  50         V                 2.765547          4.787271
  51         V                 2.889559          5.371943
  52         V                 2.980488          4.827442
  53         V                 3.096126          5.458848
  54         V                 3.362050          6.414703
  55         V                 3.568512          8.639626
  56         V                 3.671539          8.818885
  57         V                 3.824386          8.749079
  58         V                 3.934607          8.864160
  59         V                 3.975977          8.849581
  60         V                 4.077777          9.584163
  61         V                 4.364425          8.995431
  62         V                 4.634876          9.291971
  63         V                 5.212994          9.990790
  64         V                35.057928         89.009220
  65         V                35.438551         88.974209
  66         V                35.909994         89.036339
 Total kinetic energy from orbitals= 1.649521707812D+02
  Exact polarizability:   0.000   0.000   0.000   0.000   0.000   0.000
 Approx polarizability:  21.105   4.358  18.352  -7.437  -0.714  61.792
                          Isotropic Fermi Contact Couplings
        Atom                 a.u.       MegaHertz       Gauss      10(-4) cm-1
     1  N(14)              0.23662      76.45253      27.28016      25.50182
     2  N(14)              0.07511      24.27000       8.66014       8.09560
     3  N(14)              0.24674      79.72307      28.44717      26.59275
     4  H(1)              -0.00073      -3.24191      -1.15679      -1.08138
     5  H(1)               0.01682      75.19160      26.83023      25.08122
 --------------------------------------------------------
       Center         ----  Spin Dipole Couplings  ----
                      3XX-RR        3YY-RR        3ZZ-RR
 --------------------------------------------------------
     1   Atom        0.126304     -0.046747     -0.079557
     2   Atom        0.761310      0.040559     -0.801869
     3   Atom       -0.033251     -0.116831      0.150083
     4   Atom       -0.011155     -0.016126      0.027281
     5   Atom       -0.003051     -0.001003      0.004053
 --------------------------------------------------------
                        XY            XZ            YZ
 --------------------------------------------------------
     1   Atom        0.405960      0.306707      0.257259
     2   Atom        1.104696      0.176849      0.121789
     3   Atom        0.014075     -0.112889     -0.005865
     4   Atom        0.003693      0.008598     -0.000071
     5   Atom        0.010837     -0.010055     -0.005917
 --------------------------------------------------------


 ---------------------------------------------------------------------------------
              Anisotropic Spin Dipole Couplings in Principal Axis System
 ---------------------------------------------------------------------------------

       Atom             a.u.   MegaHertz   Gauss  10(-4) cm-1        Axes

              Baa    -0.3758   -14.493    -5.171    -4.834 -0.6019  0.7957 -0.0678
     1 N(14)  Bbb    -0.2931   -11.306    -4.034    -3.771 -0.4130 -0.2376  0.8792
              Bcc     0.6689    25.798     9.206     8.605  0.6835  0.5572  0.4716
 
              Baa    -0.8217   -31.689   -11.308   -10.570 -0.1232  0.0177  0.9922
     2 N(14)  Bbb    -0.7606   -29.335   -10.467    -9.785 -0.5786  0.8110 -0.0863
              Bcc     1.5823    61.024    21.775    20.355  0.8062  0.5848  0.0897
 
              Baa    -0.1203    -4.641    -1.656    -1.548 -0.2781  0.9558 -0.0954
     3 N(14)  Bbb    -0.0839    -3.236    -1.155    -1.079  0.8586  0.2918  0.4215
              Bcc     0.2042     7.877     2.811     2.627 -0.4308 -0.0354  0.9018
 
              Baa    -0.0185    -9.879    -3.525    -3.295 -0.5391  0.8360  0.1025
     4 H(1)   Bbb    -0.0106    -5.662    -2.020    -1.889  0.8156  0.5485 -0.1841
              Bcc     0.0291    15.541     5.545     5.184  0.2101  0.0156  0.9776
 
              Baa    -0.0139    -7.401    -2.641    -2.469  0.7941 -0.5470  0.2649
     5 H(1)   Bbb    -0.0041    -2.209    -0.788    -0.737  0.2078  0.6540  0.7274
              Bcc     0.0180     9.609     3.429     3.205 -0.5711 -0.5226  0.6330
 

 ---------------------------------------------------------------------------------

 No NMR shielding tensors so no spin-rotation constants.
 Leave Link  601 at Fri Apr 25 16:39:37 2014, MaxMem=   65536000 cpu:       2.8
 (Enter /apps/gaussian/g09/l716.exe)
 Dipole        = 1.29714717D-01 4.62453451D-01-1.29415278D+00
 Polarizability= 0.00000000D+00 0.00000000D+00 0.00000000D+00
                 0.00000000D+00 0.00000000D+00 0.00000000D+00
 -------------------------------------------------------------------
 Center     Atomic                   Forces (Hartrees/Bohr)
 Number     Number              X              Y              Z
 -------------------------------------------------------------------
      1        7          -0.042906451   -0.027210337    0.001011249
      2        7           0.026193294    0.015700157   -0.009072235
      3        7           0.013488668    0.009585194    0.005648887
      4        1           0.002914510    0.000521356   -0.001815878
      5        1           0.000309980    0.001403630    0.004227978
 -------------------------------------------------------------------
 Cartesian Forces:  Max     0.042906451 RMS     0.016196735
 Leave Link  716 at Fri Apr 25 16:39:37 2014, MaxMem=   65536000 cpu:       0.1
 (Enter /apps/gaussian/g09/l9999.exe)

 This type of calculation cannot be archived.


 ERROR IS THE FORCE THAT WELDS MEN TOGETHER....
 TRUTH IS COMMUNICATED TO MEN ONLY BY DEEDS OF TRUTH.
           TOLSTOI,MY RELIGION
 Job cpu time:  0 days  0 hours  9 minutes 57.2 seconds.
 File lengths (MBytes):  RWF=      9 Int=      0 D2E=      0 Chk=      2 Scr=      1
 Normal termination of Gaussian 09 at Fri Apr 25 16:39:37 2014.
************
total 892
drwxrwxr-x 2 henon henon   4096 25 avril 16:39 .
drwxrwxr-x 3 henon henon   4096 25 avril 16:38 ..
-rw-r--r-- 1 henon henon    413 25 avril 16:38 forward.inp
-rw-rw-r-- 1 henon henon 899266 25 avril 16:39 forward.out
Run on 12 cores
romeo164
************
