 Entering Gaussian System, Link 0=g03
 Initial command:
 /soft/g03/g03/l1.exe /local/run/antares-adm.116012.0/Gau-24433.inp -scrdir=/local/run/antares-adm.116012.0/
 Entering Link 1 = /soft/g03/g03/l1.exe PID=     24434.
  
 Copyright (c) 1988,1990,1992,1993,1995,1998,2003,2004, Gaussian, Inc.
                  All Rights Reserved.
  
 This is the Gaussian(R) 03 program.  It is based on the
 the Gaussian(R) 98 system (copyright 1998, Gaussian, Inc.),
 the Gaussian(R) 94 system (copyright 1995, Gaussian, Inc.),
 the Gaussian 92(TM) system (copyright 1992, Gaussian, Inc.),
 the Gaussian 90(TM) system (copyright 1990, Gaussian, Inc.),
 the Gaussian 88(TM) system (copyright 1988, Gaussian, Inc.),
 the Gaussian 86(TM) system (copyright 1986, Carnegie Mellon
 University), and the Gaussian 82(TM) system (copyright 1983,
 Carnegie Mellon University). Gaussian is a federally registered
 trademark of Gaussian, Inc.
  
 This software contains proprietary and confidential information,
 including trade secrets, belonging to Gaussian, Inc.
  
 This software is provided under written license and may be
 used, copied, transmitted, or stored only in accord with that
 written license.
  
 The following legend is applicable only to US Government
 contracts under FAR:
  
                    RESTRICTED RIGHTS LEGEND
  
 Use, reproduction and disclosure by the US Government is
 subject to restrictions as set forth in subparagraphs (a)
 and (c) of the Commercial Computer Software - Restricted
 Rights clause in FAR 52.227-19.
  
 Gaussian, Inc.
 340 Quinnipiac St., Bldg. 40, Wallingford CT 06492
  
  
 ---------------------------------------------------------------
 Warning -- This program may not be used in any manner that
 competes with the business of Gaussian, Inc. or will provide
 assistance to any competitor of Gaussian, Inc.  The licensee
 of this program is prohibited from giving any competitor of
 Gaussian, Inc. access to this program.  By using this program,
 the user acknowledges that Gaussian, Inc. is engaged in the
 business of creating and licensing software in the field of
 computational chemistry and represents and warrants to the
 licensee that it is not a competitor of Gaussian, Inc. and that
 it will not use this program in any manner prohibited above.
 ---------------------------------------------------------------
  

 Cite this work as:
 Gaussian 03, Revision C.02,
 M. J. Frisch, G. W. Trucks, H. B. Schlegel, G. E. Scuseria, 
 M. A. Robb, J. R. Cheeseman, J. A. Montgomery, Jr., T. Vreven, 
 K. N. Kudin, J. C. Burant, J. M. Millam, S. S. Iyengar, J. Tomasi, 
 V. Barone, B. Mennucci, M. Cossi, G. Scalmani, N. Rega, 
 G. A. Petersson, H. Nakatsuji, M. Hada, M. Ehara, K. Toyota, 
 R. Fukuda, J. Hasegawa, M. Ishida, T. Nakajima, Y. Honda, O. Kitao, 
 H. Nakai, M. Klene, X. Li, J. E. Knox, H. P. Hratchian, J. B. Cross, 
 C. Adamo, J. Jaramillo, R. Gomperts, R. E. Stratmann, O. Yazyev, 
 A. J. Austin, R. Cammi, C. Pomelli, J. W. Ochterski, P. Y. Ayala, 
 K. Morokuma, G. A. Voth, P. Salvador, J. J. Dannenberg, 
 V. G. Zakrzewski, S. Dapprich, A. D. Daniels, M. C. Strain, 
 O. Farkas, D. K. Malick, A. D. Rabuck, K. Raghavachari, 
 J. B. Foresman, J. V. Ortiz, Q. Cui, A. G. Baboul, S. Clifford, 
 J. Cioslowski, B. B. Stefanov, G. Liu, A. Liashenko, P. Piskorz, 
 I. Komaromi, R. L. Martin, D. J. Fox, T. Keith, M. A. Al-Laham, 
 C. Y. Peng, A. Nanayakkara, M. Challacombe, P. M. W. Gill, 
 B. Johnson, W. Chen, M. W. Wong, C. Gonzalez, and J. A. Pople, 
 Gaussian, Inc., Wallingford CT, 2004.
 
 ******************************************
 Gaussian 03:  AM64L-G03RevC.02 12-Jun-2004
                17-Apr-2013 
 ******************************************
 -------------------------------------------------
 #P MP2 6-31G** iop(6/7=3) gfinput pop=full # freq
 -------------------------------------------------
 1/10=4,30=1,38=1/1,3;
 2/17=6,18=5,40=1/2;
 3/5=1,6=6,7=101,11=9,16=1,24=10,25=1,30=1/1,2,3;
 4//1;
 5/5=2,38=5/2;
 8/6=3,8=1,10=2,19=11,30=-1/1;
 9/15=3,16=-3/6;
 11/6=1,8=1,15=11,17=12,24=-1,27=1,28=-2,29=300,32=6,42=3/1,2,10;
 10/6=2,21=1/2;
 8/6=4,8=1,10=2,19=11,30=-1/11,4;
 10/5=1,20=4/2;
 11/12=2,14=11,16=1,17=2,28=-2,42=3/2,10,12;
 6/7=3/1;
 7/8=1,10=1,12=2,25=1,44=2/1,2,3,16;
 1/10=4,30=1/3;
 99//99;
 Leave Link    1 at Wed Apr 17 22:12:47 2013, MaxMem=          0 cpu:       0.1
 (Enter /soft/g03/g03/l101.exe)
 ---
 job
 ---
 Symbolic Z-matrix:
 Charge =  0 Multiplicity = 2
 6                     0.27296   0.        0. 
 1                     0.51737  -0.13682   1.04363 
 1                     0.51737   0.97222  -0.40332 
 1                     0.51738  -0.83539  -0.64031 
 1                    -1.17889  -0.00001  0. 
 1                    -2.01097   0.       0. 
 
                    Isotopes and Nuclear Properties:

  Atom         1           2           3           4           5           6
 IAtWgt=          12           1           1           1           1           1
 AtmWgt=  12.0000000   1.0078250   1.0078250   1.0078250   1.0078250   1.0078250
 IAtSpn=           0           1           1           1           1           1
 AtZEff=   0.0000000   0.0000000   0.0000000   0.0000000   0.0000000   0.0000000
 AtQMom=   0.0000000   0.0000000   0.0000000   0.0000000   0.0000000   0.0000000
 AtGFac=   0.0000000   2.7928460   2.7928460   2.7928460   2.7928460   2.7928460
 Leave Link  101 at Wed Apr 17 22:12:47 2013, MaxMem=    6291456 cpu:       0.0
 (Enter /soft/g03/g03/l103.exe)

 GradGradGradGradGradGradGradGradGradGradGradGradGradGradGradGradGradGrad
 Berny optimization.
 Initialization pass.
 Trust Radius=3.00D-01 FncErr=1.00D-07 GrdErr=1.00D-07
 Number of steps in this run=   2 maximum allowed number of steps=   2.
 GradGradGradGradGradGradGradGradGradGradGradGradGradGradGradGradGradGrad

 Leave Link  103 at Wed Apr 17 22:12:47 2013, MaxMem=    6291456 cpu:       0.0
 (Enter /soft/g03/g03/l202.exe)
                          Input orientation:                          
 ---------------------------------------------------------------------
 Center     Atomic     Atomic              Coordinates (Angstroms)
 Number     Number      Type              X           Y           Z
 ---------------------------------------------------------------------
    1          6             0        0.272958    0.000000    0.000000
    2          1             0        0.517367   -0.136822    1.043628
    3          1             0        0.517366    0.972222   -0.403319
    4          1             0        0.517379   -0.835394   -0.640305
    5          1             0       -1.178889   -0.000007   -0.000003
    6          1             0       -2.010970    0.000000   -0.000001
 ---------------------------------------------------------------------
                    Distance matrix (angstroms):
                    1          2          3          4          5
     1  C    0.000000
     2  H    1.080563   0.000000
     3  H    1.080563   1.823084   0.000000
     4  H    1.080562   1.823083   1.823085   0.000000
     5  H    1.451847   1.996289   1.996290   1.996292   0.000000
     6  H    2.283928   2.738680   2.738679   2.738690   0.832081
                    6
     6  H    0.000000
 This structure is nearly, but not quite of a higher symmetry.
 Consider Symm=Loose if the higher symmetry is desired.
 Stoichiometry    CH5(2)
 Framework group  C1[X(CH5)]
 Deg. of freedom    12
 Full point group                 C1      NOp   1
 Largest Abelian subgroup         C1      NOp   1
 Largest concise Abelian subgroup C1      NOp   1
                         Standard orientation:                         
 ---------------------------------------------------------------------
 Center     Atomic     Atomic              Coordinates (Angstroms)
 Number     Number      Type              X           Y           Z
 ---------------------------------------------------------------------
    1          6             0       -0.000208    0.007530   -0.272854
    2          1             0        1.046612   -0.093631   -0.520946
    3          1             0       -0.430391    0.974619   -0.490337
    4          1             0       -0.617400   -0.838162   -0.540237
    5          1             0        0.000896   -0.032530    1.178440
    6          1             0        0.001532   -0.055478    2.010204
 ---------------------------------------------------------------------
 Rotational constants (GHZ):    150.8754969     58.0926713     58.0926518
 Leave Link  202 at Wed Apr 17 22:12:47 2013, MaxMem=    6291456 cpu:       0.0
 (Enter /soft/g03/g03/l301.exe)
 Standard basis: 6-31G(d,p) (6D, 7F)
 AO basis set in the form of general basis input:
  1 0
 S   6 1.00       0.000000000000
      0.3047524880D+04  0.1834737132D-02
      0.4573695180D+03  0.1403732281D-01
      0.1039486850D+03  0.6884262226D-01
      0.2921015530D+02  0.2321844432D+00
      0.9286662960D+01  0.4679413484D+00
      0.3163926960D+01  0.3623119853D+00
 SP   3 1.00       0.000000000000
      0.7868272350D+01 -0.1193324198D+00  0.6899906659D-01
      0.1881288540D+01 -0.1608541517D+00  0.3164239610D+00
      0.5442492580D+00  0.1143456438D+01  0.7443082909D+00
 SP   1 1.00       0.000000000000
      0.1687144782D+00  0.1000000000D+01  0.1000000000D+01
 D   1 1.00       0.000000000000
      0.8000000000D+00  0.1000000000D+01
 ****
  2 0
 S   3 1.00       0.000000000000
      0.1873113696D+02  0.3349460434D-01
      0.2825394365D+01  0.2347269535D+00
      0.6401216923D+00  0.8137573261D+00
 S   1 1.00       0.000000000000
      0.1612777588D+00  0.1000000000D+01
 P   1 1.00       0.000000000000
      0.1100000000D+01  0.1000000000D+01
 ****
  3 0
 S   3 1.00       0.000000000000
      0.1873113696D+02  0.3349460434D-01
      0.2825394365D+01  0.2347269535D+00
      0.6401216923D+00  0.8137573261D+00
 S   1 1.00       0.000000000000
      0.1612777588D+00  0.1000000000D+01
 P   1 1.00       0.000000000000
      0.1100000000D+01  0.1000000000D+01
 ****
  4 0
 S   3 1.00       0.000000000000
      0.1873113696D+02  0.3349460434D-01
      0.2825394365D+01  0.2347269535D+00
      0.6401216923D+00  0.8137573261D+00
 S   1 1.00       0.000000000000
      0.1612777588D+00  0.1000000000D+01
 P   1 1.00       0.000000000000
      0.1100000000D+01  0.1000000000D+01
 ****
  5 0
 S   3 1.00       0.000000000000
      0.1873113696D+02  0.3349460434D-01
      0.2825394365D+01  0.2347269535D+00
      0.6401216923D+00  0.8137573261D+00
 S   1 1.00       0.000000000000
      0.1612777588D+00  0.1000000000D+01
 P   1 1.00       0.000000000000
      0.1100000000D+01  0.1000000000D+01
 ****
  6 0
 S   3 1.00       0.000000000000
      0.1873113696D+02  0.3349460434D-01
      0.2825394365D+01  0.2347269535D+00
      0.6401216923D+00  0.8137573261D+00
 S   1 1.00       0.000000000000
      0.1612777588D+00  0.1000000000D+01
 P   1 1.00       0.000000000000
      0.1100000000D+01  0.1000000000D+01
 ****

 There are    40 symmetry adapted basis functions of A   symmetry.
 Integral buffers will be    131072 words long.
 Raffenetti 2 integral format.
 Two-electron integral symmetry is turned on.
    40 basis functions,    63 primitive gaussians,    40 cartesian basis functions
     6 alpha electrons        5 beta electrons
       nuclear repulsion energy        15.2737899004 Hartrees.
 IExCor=   0 DFT=F Ex=HF Corr=None ExCW=0 ScaHFX=  1.000000
 ScaDFX=  1.000000  1.000000  1.000000  1.000000
 IRadAn=      0 IRanWt=     -1 IRanGd=            0 ICorTp=0
 NAtoms=    6 NActive=    6 NUniq=    6 SFac= 1.00D+00 NAtFMM=   60 Big=F
 Leave Link  301 at Wed Apr 17 22:12:47 2013, MaxMem=    6291456 cpu:       0.0
 (Enter /soft/g03/g03/l302.exe)
 NPDir=0 NMtPBC=     1 NCelOv=     1 NCel=       1 NClECP=     1 NCelD=      1
         NCelK=      1 NCelE2=     1 NClLst=     1 CellRange=     0.0.
 One-electron integrals computed using PRISM.
 NBasis=    40 RedAO= T  NBF=    40
 NBsUse=    40 1.00D-06 NBFU=    40
 Leave Link  302 at Wed Apr 17 22:12:48 2013, MaxMem=    6291456 cpu:       0.1
 (Enter /soft/g03/g03/l303.exe)
 DipDrv:  MaxL=1.
 Leave Link  303 at Wed Apr 17 22:12:48 2013, MaxMem=    6291456 cpu:       0.0
 (Enter /soft/g03/g03/l401.exe)
 Harris functional with IExCor=  205 diagonalized for initial guess.
 ExpMin= 1.61D-01 ExpMax= 3.05D+03 ExpMxC= 4.57D+02 IAcc=1 IRadAn=         1 AccDes= 1.00D-06
 HarFok:  IExCor= 205 AccDes= 1.00D-06 IRadAn=         1 IDoV=1
 ScaDFX=  1.000000  1.000000  1.000000  1.000000
 Harris En= -40.8366528670708    
 Initial guess orbital symmetries:
 Alpha Orbitals:
       Occupied  (A) (A) (A) (A) (A) (A)
       Virtual   (A) (A) (A) (A) (A) (A) (A) (A) (A) (A) (A) (A)
                 (A) (A) (A) (A) (A) (A) (A) (A) (A) (A) (A) (A)
                 (A) (A) (A) (A) (A) (A) (A) (A) (A) (A)
 Beta  Orbitals:
       Occupied  (A) (A) (A) (A) (A)
       Virtual   (A) (A) (A) (A) (A) (A) (A) (A) (A) (A) (A) (A)
                 (A) (A) (A) (A) (A) (A) (A) (A) (A) (A) (A) (A)
                 (A) (A) (A) (A) (A) (A) (A) (A) (A) (A) (A)
 The electronic state of the initial guess is 2-A.
 <S**2> of initial guess= 0.7500
 Leave Link  401 at Wed Apr 17 22:12:48 2013, MaxMem=    6291456 cpu:       0.1
 (Enter /soft/g03/g03/l502.exe)
 UHF open shell SCF:
 Requested convergence on RMS density matrix=1.00D-08 within 128 cycles.
 Requested convergence on MAX density matrix=1.00D-06.
 Requested convergence on             energy=1.00D-06.
 No special actions if energy rises.
 Using DIIS extrapolation, IDIIS=  1040.
 Integral symmetry usage will be decided dynamically.
 Keep R1 and R2 integrals in memory in canonical form, NReq=     1550873.
 IEnd=     23199 IEndB=     23199 NGot=   6291456 MDV=   5613304
 LenX=   5613304
 Symmetry not used in FoFDir.
 MinBra= 0 MaxBra= 2 Meth= 1.
 IRaf=       0 NMat=   1 IRICut=       1 DoRegI=T DoRafI=F ISym2E= 0 JSym2E=0.

 Cycle   1  Pass 1  IDiag  1:
 E= -40.5409647661691    
 DIIS: error= 5.84D-02 at cycle   1 NSaved=   1.
 NSaved= 1 IEnMin= 1 EnMin= -40.5409647661691     IErMin= 1 ErrMin= 5.84D-02
 ErrMax= 5.84D-02 EMaxC= 1.00D-01 BMatC= 4.90D-01 BMatP= 4.90D-01
 IDIUse=3 WtCom= 4.16D-01 WtEn= 5.84D-01
 Coeff-Com:  0.100D+01
 Coeff-En:   0.100D+01
 Coeff:      0.100D+01
 Gap=     0.574 Goal=   None    Shift=    0.000
 Gap=     0.665 Goal=   None    Shift=    0.000
 GapD=    0.574 DampG=2.000 DampE=0.500 DampFc=1.0000 IDamp=-1.
 RMSDP=9.74D-03 MaxDP=1.49D-01              OVMax= 1.75D-01

 Cycle   2  Pass 1  IDiag  1:
 E= -40.6422143505825     Delta-E=       -0.101249584413 Rises=F Damp=F
 DIIS: error= 2.15D-02 at cycle   2 NSaved=   2.
 NSaved= 2 IEnMin= 2 EnMin= -40.6422143505825     IErMin= 2 ErrMin= 2.15D-02
 ErrMax= 2.15D-02 EMaxC= 1.00D-01 BMatC= 7.77D-02 BMatP= 4.90D-01
 IDIUse=3 WtCom= 7.85D-01 WtEn= 2.15D-01
 Coeff-Com:  0.240D+00 0.760D+00
 Coeff-En:   0.000D+00 0.100D+01
 Coeff:      0.188D+00 0.812D+00
 Gap=     0.610 Goal=   None    Shift=    0.000
 Gap=     0.680 Goal=   None    Shift=    0.000
 RMSDP=3.67D-03 MaxDP=6.22D-02 DE=-1.01D-01 OVMax= 5.71D-02

 Cycle   3  Pass 1  IDiag  1:
 E= -40.6618948579032     Delta-E=       -0.019680507321 Rises=F Damp=F
 DIIS: error= 7.32D-03 at cycle   3 NSaved=   3.
 NSaved= 3 IEnMin= 3 EnMin= -40.6618948579032     IErMin= 3 ErrMin= 7.32D-03
 ErrMax= 7.32D-03 EMaxC= 1.00D-01 BMatC= 3.04D-03 BMatP= 7.77D-02
 IDIUse=3 WtCom= 9.27D-01 WtEn= 7.32D-02
 Coeff-Com: -0.469D-01 0.191D-01 0.103D+01
 Coeff-En:   0.000D+00 0.000D+00 0.100D+01
 Coeff:     -0.434D-01 0.177D-01 0.103D+01
 Gap=     0.601 Goal=   None    Shift=    0.000
 Gap=     0.651 Goal=   None    Shift=    0.000
 RMSDP=9.28D-04 MaxDP=2.05D-02 DE=-1.97D-02 OVMax= 2.52D-02

 Cycle   4  Pass 1  IDiag  1:
 E= -40.6635150795649     Delta-E=       -0.001620221662 Rises=F Damp=F
 DIIS: error= 2.82D-03 at cycle   4 NSaved=   4.
 NSaved= 4 IEnMin= 4 EnMin= -40.6635150795649     IErMin= 4 ErrMin= 2.82D-03
 ErrMax= 2.82D-03 EMaxC= 1.00D-01 BMatC= 4.97D-04 BMatP= 3.04D-03
 IDIUse=3 WtCom= 9.72D-01 WtEn= 2.82D-02
 Coeff-Com:  0.234D-01-0.603D-01-0.813D+00 0.185D+01
 Coeff-En:   0.000D+00 0.000D+00 0.000D+00 0.100D+01
 Coeff:      0.228D-01-0.586D-01-0.790D+00 0.183D+01
 Gap=     0.608 Goal=   None    Shift=    0.000
 Gap=     0.663 Goal=   None    Shift=    0.000
 RMSDP=8.36D-04 MaxDP=1.57D-02 DE=-1.62D-03 OVMax= 1.88D-02

 Cycle   5  Pass 1  IDiag  1:
 E= -40.6639726237047     Delta-E=       -0.000457544140 Rises=F Damp=F
 DIIS: error= 4.88D-04 at cycle   5 NSaved=   5.
 NSaved= 5 IEnMin= 5 EnMin= -40.6639726237047     IErMin= 5 ErrMin= 4.88D-04
 ErrMax= 4.88D-04 EMaxC= 1.00D-01 BMatC= 2.70D-05 BMatP= 4.97D-04
 IDIUse=3 WtCom= 9.95D-01 WtEn= 4.88D-03
 Coeff-Com: -0.888D-02 0.310D-01 0.360D+00-0.946D+00 0.156D+01
 Coeff-En:   0.000D+00 0.000D+00 0.000D+00 0.000D+00 0.100D+01
 Coeff:     -0.884D-02 0.308D-01 0.358D+00-0.942D+00 0.156D+01
 Gap=     0.608 Goal=   None    Shift=    0.000
 Gap=     0.665 Goal=   None    Shift=    0.000
 RMSDP=1.61D-04 MaxDP=2.25D-03 DE=-4.58D-04 OVMax= 2.83D-03

 Cycle   6  Pass 1  IDiag  1:
 E= -40.6639979666147     Delta-E=       -0.000025342910 Rises=F Damp=F
 DIIS: error= 2.18D-04 at cycle   6 NSaved=   6.
 NSaved= 6 IEnMin= 6 EnMin= -40.6639979666147     IErMin= 6 ErrMin= 2.18D-04
 ErrMax= 2.18D-04 EMaxC= 1.00D-01 BMatC= 4.07D-06 BMatP= 2.70D-05
 IDIUse=3 WtCom= 9.98D-01 WtEn= 2.18D-03
 Coeff-Com:  0.108D-02-0.579D-02-0.587D-01 0.185D+00-0.666D+00 0.155D+01
 Coeff-En:   0.000D+00 0.000D+00 0.000D+00 0.000D+00 0.000D+00 0.100D+01
 Coeff:      0.108D-02-0.577D-02-0.586D-01 0.184D+00-0.665D+00 0.154D+01
 Gap=     0.608 Goal=   None    Shift=    0.000
 Gap=     0.665 Goal=   None    Shift=    0.000
 RMSDP=8.17D-05 MaxDP=9.23D-04 DE=-2.53D-05 OVMax= 1.05D-03

 Cycle   7  Pass 1  IDiag  1:
 E= -40.6640024473143     Delta-E=       -0.000004480700 Rises=F Damp=F
 DIIS: error= 7.62D-05 at cycle   7 NSaved=   7.
 NSaved= 7 IEnMin= 7 EnMin= -40.6640024473143     IErMin= 7 ErrMin= 7.62D-05
 ErrMax= 7.62D-05 EMaxC= 1.00D-01 BMatC= 6.54D-07 BMatP= 4.07D-06
 IDIUse=1 WtCom= 1.00D+00 WtEn= 0.00D+00
 Coeff-Com:  0.839D-03-0.210D-02-0.267D-01 0.579D-01 0.797D-01-0.839D+00
 Coeff-Com:  0.173D+01
 Coeff:      0.839D-03-0.210D-02-0.267D-01 0.579D-01 0.797D-01-0.839D+00
 Coeff:      0.173D+01
 Gap=     0.608 Goal=   None    Shift=    0.000
 Gap=     0.665 Goal=   None    Shift=    0.000
 RMSDP=4.43D-05 MaxDP=6.60D-04 DE=-4.48D-06 OVMax= 6.18D-04

 Cycle   8  Pass 1  IDiag  1:
 E= -40.6640032539782     Delta-E=       -0.000000806664 Rises=F Damp=F
 DIIS: error= 1.64D-05 at cycle   8 NSaved=   8.
 NSaved= 8 IEnMin= 8 EnMin= -40.6640032539782     IErMin= 8 ErrMin= 1.64D-05
 ErrMax= 1.64D-05 EMaxC= 1.00D-01 BMatC= 2.69D-08 BMatP= 6.54D-07
 IDIUse=1 WtCom= 1.00D+00 WtEn= 0.00D+00
 Coeff-Com: -0.327D-03 0.108D-02 0.129D-01-0.320D-01 0.301D-01 0.130D+00
 Coeff-Com: -0.543D+00 0.140D+01
 Coeff:     -0.327D-03 0.108D-02 0.129D-01-0.320D-01 0.301D-01 0.130D+00
 Coeff:     -0.543D+00 0.140D+01
 Gap=     0.608 Goal=   None    Shift=    0.000
 Gap=     0.665 Goal=   None    Shift=    0.000
 RMSDP=7.88D-06 MaxDP=1.86D-04 DE=-8.07D-07 OVMax= 1.47D-04

 Cycle   9  Pass 1  IDiag  1:
 E= -40.6640032817764     Delta-E=       -0.000000027798 Rises=F Damp=F
 DIIS: error= 3.62D-06 at cycle   9 NSaved=   9.
 NSaved= 9 IEnMin= 9 EnMin= -40.6640032817764     IErMin= 9 ErrMin= 3.62D-06
 ErrMax= 3.62D-06 EMaxC= 1.00D-01 BMatC= 9.28D-10 BMatP= 2.69D-08
 IDIUse=1 WtCom= 1.00D+00 WtEn= 0.00D+00
 Coeff-Com:  0.625D-04-0.213D-03-0.272D-02 0.680D-02-0.989D-02-0.107D-01
 Coeff-Com:  0.917D-01-0.362D+00 0.129D+01
 Coeff:      0.625D-04-0.213D-03-0.272D-02 0.680D-02-0.989D-02-0.107D-01
 Coeff:      0.917D-01-0.362D+00 0.129D+01
 Gap=     0.608 Goal=   None    Shift=    0.000
 Gap=     0.665 Goal=   None    Shift=    0.000
 RMSDP=1.48D-06 MaxDP=3.95D-05 DE=-2.78D-08 OVMax= 2.59D-05

 Cycle  10  Pass 1  IDiag  1:
 E= -40.6640032827544     Delta-E=       -0.000000000978 Rises=F Damp=F
 DIIS: error= 1.76D-06 at cycle  10 NSaved=  10.
 NSaved=10 IEnMin=10 EnMin= -40.6640032827544     IErMin=10 ErrMin= 1.76D-06
 ErrMax= 1.76D-06 EMaxC= 1.00D-01 BMatC= 2.04D-10 BMatP= 9.28D-10
 IDIUse=1 WtCom= 1.00D+00 WtEn= 0.00D+00
 Coeff-Com: -0.416D-04 0.146D-03 0.192D-02-0.468D-02 0.792D-02 0.164D-02
 Coeff-Com: -0.552D-01 0.268D+00-0.127D+01 0.205D+01
 Coeff:     -0.416D-04 0.146D-03 0.192D-02-0.468D-02 0.792D-02 0.164D-02
 Coeff:     -0.552D-01 0.268D+00-0.127D+01 0.205D+01
 Gap=     0.608 Goal=   None    Shift=    0.000
 Gap=     0.665 Goal=   None    Shift=    0.000
 RMSDP=1.12D-06 MaxDP=2.55D-05 DE=-9.78D-10 OVMax= 1.62D-05

 Cycle  11  Pass 1  IDiag  1:
 E= -40.6640032830401     Delta-E=       -0.000000000286 Rises=F Damp=F
 DIIS: error= 8.08D-07 at cycle  11 NSaved=  11.
 NSaved=11 IEnMin=11 EnMin= -40.6640032830401     IErMin=11 ErrMin= 8.08D-07
 ErrMax= 8.08D-07 EMaxC= 1.00D-01 BMatC= 1.75D-11 BMatP= 2.04D-10
 IDIUse=1 WtCom= 1.00D+00 WtEn= 0.00D+00
 Coeff-Com:  0.130D-04-0.485D-04-0.634D-03 0.146D-02-0.265D-02-0.252D-03
 Coeff-Com:  0.185D-01-0.102D+00 0.592D+00-0.124D+01 0.173D+01
 Coeff:      0.130D-04-0.485D-04-0.634D-03 0.146D-02-0.265D-02-0.252D-03
 Coeff:      0.185D-01-0.102D+00 0.592D+00-0.124D+01 0.173D+01
 Gap=     0.608 Goal=   None    Shift=    0.000
 Gap=     0.665 Goal=   None    Shift=    0.000
 RMSDP=2.92D-07 MaxDP=5.08D-06 DE=-2.86D-10 OVMax= 7.06D-06

 Cycle  12  Pass 1  IDiag  1:
 E= -40.6640032830649     Delta-E=       -0.000000000025 Rises=F Damp=F
 DIIS: error= 1.35D-07 at cycle  12 NSaved=  12.
 NSaved=12 IEnMin=12 EnMin= -40.6640032830649     IErMin=12 ErrMin= 1.35D-07
 ErrMax= 1.35D-07 EMaxC= 1.00D-01 BMatC= 9.21D-13 BMatP= 1.75D-11
 IDIUse=1 WtCom= 1.00D+00 WtEn= 0.00D+00
 Coeff-Com: -0.384D-05 0.147D-04 0.199D-03-0.423D-03 0.855D-03-0.187D-03
 Coeff-Com: -0.549D-02 0.345D-01-0.219D+00 0.498D+00-0.864D+00 0.156D+01
 Coeff:     -0.384D-05 0.147D-04 0.199D-03-0.423D-03 0.855D-03-0.187D-03
 Coeff:     -0.549D-02 0.345D-01-0.219D+00 0.498D+00-0.864D+00 0.156D+01
 Gap=     0.608 Goal=   None    Shift=    0.000
 Gap=     0.665 Goal=   None    Shift=    0.000
 RMSDP=3.36D-08 MaxDP=4.64D-07 DE=-2.48D-11 OVMax= 8.85D-07

 Cycle  13  Pass 1  IDiag  1:
 E= -40.6640032830658     Delta-E=       -0.000000000001 Rises=F Damp=F
 DIIS: error= 3.17D-08 at cycle  13 NSaved=  13.
 NSaved=13 IEnMin=13 EnMin= -40.6640032830658     IErMin=13 ErrMin= 3.17D-08
 ErrMax= 3.17D-08 EMaxC= 1.00D-01 BMatC= 3.77D-14 BMatP= 9.21D-13
 IDIUse=1 WtCom= 1.00D+00 WtEn= 0.00D+00
 Coeff-Com:  0.453D-06-0.202D-05-0.264D-04 0.457D-04-0.125D-03 0.143D-03
 Coeff-Com:  0.476D-03-0.463D-02 0.350D-01-0.895D-01 0.168D+00-0.477D+00
 Coeff-Com:  0.137D+01
 Coeff:      0.453D-06-0.202D-05-0.264D-04 0.457D-04-0.125D-03 0.143D-03
 Coeff:      0.476D-03-0.463D-02 0.350D-01-0.895D-01 0.168D+00-0.477D+00
 Coeff:      0.137D+01
 Gap=     0.608 Goal=   None    Shift=    0.000
 Gap=     0.665 Goal=   None    Shift=    0.000
 RMSDP=9.41D-09 MaxDP=1.27D-07 DE=-9.31D-13 OVMax= 2.81D-07

 SCF Done:  E(UHF) =  -40.6640032831     A.U. after   13 cycles
             Convg  =    0.9409D-08             -V/T =  1.9988
             S**2   =   0.7810
 KE= 4.071249889747D+01 PE=-1.244452543037D+02 EE= 2.779496222272D+01
 Annihilation of the first spin contaminant:
 S**2 before annihilation     0.7810,   after     0.7504
 Leave Link  502 at Wed Apr 17 22:12:48 2013, MaxMem=    6291456 cpu:       0.1
 (Enter /soft/g03/g03/l801.exe)
 ExpMin= 1.61D-01 ExpMax= 3.05D+03 ExpMxC= 4.57D+02 IAcc=1 IRadAn=         1 AccDes= 1.00D-06
 HarFok:  IExCor= 205 AccDes= 1.00D-06 IRadAn=         1 IDoV=1
 ScaDFX=  1.000000  1.000000  1.000000  1.000000
 Largest valence mixing into a core orbital is  1.58D-04
 Largest core mixing into a valence orbital is  2.20D-05
 Largest valence mixing into a core orbital is  2.05D-04
 Largest core mixing into a valence orbital is  3.42D-05
 Range of M.O.s used for correlation:     2    40
 NBasis=    40 NAE=     6 NBE=     5 NFC=     1 NFV=     0
 NROrb=     39 NOA=     5 NOB=     4 NVA=    34 NVB=    35
 Leave Link  801 at Wed Apr 17 22:12:49 2013, MaxMem=    6291456 cpu:       0.0
 (Enter /soft/g03/g03/l906.exe)
 Frozen-core derivative calculation, NFC=   1 NFV=   0.
 FulOut=F Deriv=T AODrv=T NAtomX=     6
   MMem=           0  MDisk=           5 MDiskD=           5
  W3Min=       19200 MinDsk=      102260 NBas6D=          40
 NBas2D=         862    NTT=         820    LW2=     3000000
    MDV=     6280212 MDiskM=        2277 NBas2p=         862
 Disk-based method using ON**2 memory for  5 occupieds at a time.
 Permanent disk used for amplitudes=       50065 words.
 Estimated scratch disk usage=     1096240 words.
 IMap=   1   2   3   4   5   6
 Actual    scratch disk usage=     1096240 words.
 JobTyp=2 Pass  1:  I=   2 to   6 NPSUse=  1 ParTrn=F ParDer=F DoDerP=T.
 (rs|ai) integrals will be sorted in core.
 IMap=   1   2   3   4   5
 Actual    scratch disk usage=     1096240 words.
 JobTyp=3 Pass  1:  I=   2 to   5 NPSUse=  1 ParTrn=F ParDer=F DoDerP=T.
 (rs|ai) integrals will be sorted in core.
 Spin components of T(2) and E(2):
     alpha-alpha T2 =       0.6231292531D-02 E2=     -0.1907973730D-01
     alpha-beta  T2 =       0.4247120372D-01 E2=     -0.1354880046D+00
     beta-beta   T2 =       0.3257298215D-02 E2=     -0.9444494031D-02
 The integrals were generated   2 times.
 (S**2,0)=  0.78104D+00           (S**2,1)=  0.76078D+00
 E(PUHF)=      -0.40670349241D+02        E(PMP2)=      -0.40832304912D+02
 ANorm=    0.1025650913D+01
 E2 =    -0.1640122360D+00 EUMP2 =    -0.40828015519033D+02
 Leave Link  906 at Wed Apr 17 22:12:53 2013, MaxMem=    6291456 cpu:       4.1
 (Enter /soft/g03/g03/l1101.exe)
 Using compressed Sx but separate Hx and Fx, NAtomX=     6.
 Will process   7 centers per pass.
 Leave Link 1101 at Wed Apr 17 22:12:53 2013, MaxMem=    6291456 cpu:       0.1
 (Enter /soft/g03/g03/l1102.exe)
 Use density number 0.
 Leave Link 1102 at Wed Apr 17 22:12:53 2013, MaxMem=    6291456 cpu:       0.0
 (Enter /soft/g03/g03/l1110.exe)
 Forming Gx(P) for the SCF density, NAtomX=     6.
 Integral derivatives from FoFDir, PRISM(SPDF).
 Do as many integral derivatives as possible in FoFDir.
 G2DrvN: MDV=       6291406.
 G2DrvN: will do    7 centers at a time, making    1 passes doing MaxLOS=2.
 Symmetry not used in FoFDir.
 MinBra= 0 MaxBra= 2 Meth= 1.
 IRaf=       0 NMat=   1 IRICut=       1 DoRegI=T DoRafI=F ISym2E= 0 JSym2E=0.
 FoFDir/FoFCou used for L=0 through L=2.
 Leave Link 1110 at Wed Apr 17 22:12:53 2013, MaxMem=    6291456 cpu:       0.2
 (Enter /soft/g03/g03/l1002.exe)
 Minotr:  UHF wavefunction.
 DoAtom=TTTTTT
          Frozen-core window.
          Direct CPHF calculation.
          Solving linear equations simultaneously.
          Differentiating once with respect to electric field.
                with respect to dipole field.
          Differentiating once with respect to nuclear coordinates.
          Requested convergence is 1.0D-08 RMS, and 1.0D-07 maximum.
          Secondary convergence is 1.0D-12 RMS, and 1.0D-12 maximum.
          NewPWx=T KeepS1=T KeepF1=T KeepIn=T MapXYZ=F.
          MDV=       6291400 using IRadAn=       2.
          Store integrals in memory, NReq=     1493710.
 Symmetry not used in FoFDir.
 MinBra= 0 MaxBra= 2 Meth= 1.
 IRaf=       0 NMat=   1 IRICut=       1 DoRegI=T DoRafI=F ISym2E= 0 JSym2E=0.
          There are  21 degrees of freedom in the 1st order CPHF.
    18 vectors were produced by pass  0.
 AX will form  18 AO Fock derivatives at one time.
    18 vectors were produced by pass  1.
    18 vectors were produced by pass  2.
    18 vectors were produced by pass  3.
    18 vectors were produced by pass  4.
    18 vectors were produced by pass  5.
    12 vectors were produced by pass  6.
     4 vectors were produced by pass  7.
     1 vectors were produced by pass  8.
 Inv2:  IOpt= 1 Iter= 1 AM= 3.48D-15 Conv= 1.00D-12.
 Inverted reduced A of dimension  125 with in-core refinement.
 Saving first derivative matrices.
 End of Minotr Frequency-dependent properties file   721 does not exist.
 Leave Link 1002 at Wed Apr 17 22:12:54 2013, MaxMem=    6291456 cpu:       0.3
 (Enter /soft/g03/g03/l811.exe)
 MDV=     6291456.
 Form MO integral derivatives with frozen-active canonical formalism.
 MOERI=1 MOERIx=1 NAtoms=     6 NAtomA=     6 NAtomX=     6.
 Discarding MO integrals.
 MO basis two electron integral derivatives will not be stored on disk.
 IAlg= 3 DoFC=T DoPWx=T Debug=F.
 Frozen-core window:  NFC=   1 NFV=   0.
             Reordered first order wavefunction length =       207461
 In DefCFB: NBatch=  1, ICI=  6, ICA= 35, LFMax= 12
             Large arrays: LIAPS=     2425600, LIARS=     1764000 words.
  In StABat: MaxSiz= 15 MinSiz= 10 NAtomB=  3
 DoIAMN:  NPSUse=  1.
 In DefCFB: NBatch=  1, ICI=  6, ICA= 35, LFMax= 12
             Large arrays: LIAPS=     2425600, LIARS=     1764000 words.
  In StABat: MaxSiz= 15 MinSiz= 10 NAtomB=  3
 Leave Link  811 at Wed Apr 17 22:12:56 2013, MaxMem=    6291456 cpu:       1.8
 (Enter /soft/g03/g03/l804.exe)
 Frozen-core window:  NFC=   1 NFV=   0.
 Open-shell transformation, MDV=     6291456 ITran=4 ISComp=1.
 Compute canonical integrals, LenV=     5604917.
 Symmetry not used in FoFDir.
 MinBra= 0 MaxBra= 2 Meth= 1.
 IRaf=       0 NMat=   1 IRICut=       1 DoRegI=T DoRafI=F ISym2E= 0 JSym2E=0.
 Compute canonical integrals, LenV=     5604917.
 SymMOI:  orbitals are not symmetric.
 Spin components of T(2) and E(2):
     alpha-alpha T2 =       0.6231292531D-02 E2=     -0.1907973730D-01
     alpha-beta  T2 =       0.4247120372D-01 E2=     -0.1354880046D+00
     beta-beta   T2 =       0.3257298215D-02 E2=     -0.9444494031D-02
 ANorm=    0.1450489431D+01
 E2=       -0.1640122360D+00 EUMP2=       -0.40828015519033D+02
 (S**2,0)=  0.78104D+00           (S**2,1)=  0.76078D+00
 E(PUHF)=      -0.40670349241D+02        E(PMP2)=      -0.40832304912D+02
 Leave Link  804 at Wed Apr 17 22:12:56 2013, MaxMem=    6291456 cpu:       0.2
 (Enter /soft/g03/g03/l1002.exe)
 Minotr:  UHF wavefunction.
          Computing MP2 derivatives.
          Using Z-Vector for PSCF gradient.
          Skipping F1 and S1 gradient terms here.
 DoAtom=TTTTTT
          Frozen-core window.
          Using MO integrals in the linear equations.
          Forming densities via direct SCF.
          Solving linear equations simultaneously.
          Differentiating once with respect to electric field.
                with respect to dipole field.
          Differentiating once with respect to nuclear coordinates.
          Requested convergence is 1.0D-10 RMS, and 1.0D-09 maximum.
          Secondary convergence is 1.0D-12 RMS, and 1.0D-12 maximum.
          NewPWx=F KeepS1=T KeepF1=T KeepIn=T MapXYZ=F.
          MDV=       6291400 using IRadAn=       0.
          There are   1 degrees of freedom in the 1st order CPHF.
 Petite list used in FoFDir.
 MinBra= 0 MaxBra= 2 Meth= 1.
 IRaf=       0 NMat=   1 IRICut=       1 DoRegI=T DoRafI=F ISym2E= 1 JSym2E=1.
     1 vectors were produced by pass  0.
     1 vectors were produced by pass  1.
     1 vectors were produced by pass  2.
     1 vectors were produced by pass  3.
     1 vectors were produced by pass  4.
     1 vectors were produced by pass  5.
     1 vectors were produced by pass  6.
     1 vectors were produced by pass  7.
     1 vectors were produced by pass  8.
     1 vectors were produced by pass  9.
     1 vectors were produced by pass 10.
 Inv2:  IOpt= 1 Iter= 1 AM= 6.77D-16 Conv= 1.00D-12.
 Inverted reduced A of dimension   11 with in-core refinement.
 End of Minotr Frequency-dependent properties file   721 does not exist.
 Leave Link 1002 at Wed Apr 17 22:12:56 2013, MaxMem=    6291456 cpu:       0.2
 (Enter /soft/g03/g03/l1102.exe)
 Use density number 2.
 Symmetrizing basis deriv contribution to polar:
 IMax=3 JMax=2 DiffMx= 0.00D+00
 Leave Link 1102 at Wed Apr 17 22:12:56 2013, MaxMem=    6291456 cpu:       0.0
 (Enter /soft/g03/g03/l1110.exe)
 Forming Gx(P) for generalized density number  2 NAtomX=     6.
 Integral derivatives from FoFDir, PRISM(SPDF).
 Do as many integral derivatives as possible in FoFDir.
 G2DrvN: MDV=       6291406.
 G2DrvN: will do    7 centers at a time, making    1 passes doing MaxLOS=2.
 Symmetry not used in FoFDir.
 MinBra= 0 MaxBra= 2 Meth= 1.
 IRaf=       0 NMat=   1 IRICut=       1 DoRegI=T DoRafI=F ISym2E= 0 JSym2E=0.
 FoFDir/FoFCou used for L=0 through L=2.
 Leave Link 1110 at Wed Apr 17 22:12:56 2013, MaxMem=    6291456 cpu:       0.2
 (Enter /soft/g03/g03/l1112.exe)
 MP22nd: MDV=       6291456
 This link is doing NAtomX=     6 total of    21 degrees of freedom.
 Using ON3 I/O method in MakUI.
 Frozen-core window:  NFC=   1 NFV=   0.
 Using Ix for Sx.
 Use MO integrals over full window.
 Using OV2 memory method for fx*t*t/D, MaxI=  6 Force3=T.
 R2 and R3 integrals will be kept in memory, NReq=     1493220.
 Symmetry not used in FoFDir.
 MinBra= 0 MaxBra= 2 Meth= 1.
 IRaf=       0 NMat=   1 IRICut=       1 DoRegI=T DoRafI=F ISym2E= 0 JSym2E=0.
 DD1Dir will call FoFMem   1 times, MxPair=        86
 NAB=    30 NAA=    15 NBB=    10.
 Symmetry is being used.
 Discarding MO integrals.
 Leave Link 1112 at Wed Apr 17 22:12:57 2013, MaxMem=    6291456 cpu:       0.8
 (Enter /soft/g03/g03/l601.exe)
 Copying SCF densities to generalized density rwf, ISCF=1 IROHF=0.

 **********************************************************************

            Population analysis using the SCF density.

 **********************************************************************

 Orbital symmetries:
 Alpha Orbitals:
       Occupied  (A) (A) (A) (A) (A) (A)
       Virtual   (A) (A) (A) (A) (A) (A) (A) (A) (A) (A) (A) (A)
                 (A) (A) (A) (A) (A) (A) (A) (A) (A) (A) (A) (A)
                 (A) (A) (A) (A) (A) (A) (A) (A) (A) (A)
 Beta  Orbitals:
       Occupied  (A) (A) (A) (A) (A)
       Virtual   (A) (A) (A) (A) (A) (A) (A) (A) (A) (A) (A) (A)
                 (A) (A) (A) (A) (A) (A) (A) (A) (A) (A) (A) (A)
                 (A) (A) (A) (A) (A) (A) (A) (A) (A) (A) (A)
 The electronic state is 2-A.
 Alpha  occ. eigenvalues --  -11.24052  -0.97045  -0.62844  -0.57909  -0.57909
 Alpha  occ. eigenvalues --   -0.35403
 Alpha virt. eigenvalues --    0.25392   0.31681   0.31681   0.34968   0.71217
 Alpha virt. eigenvalues --    0.71217   0.74863   0.88808   1.13936   1.13936
 Alpha virt. eigenvalues --    1.17212   1.24470   1.40859   1.63117   1.63117
 Alpha virt. eigenvalues --    2.01762   2.01762   2.10116   2.30087   2.30087
 Alpha virt. eigenvalues --    2.31567   2.64966   2.64966   2.80622   2.92550
 Alpha virt. eigenvalues --    2.98315   2.98315   3.15132   3.15132   3.57475
 Alpha virt. eigenvalues --    3.80389   3.80389   4.34231   4.92095
  Beta  occ. eigenvalues --  -11.21821  -0.89601  -0.56483  -0.56483  -0.54732
  Beta virt. eigenvalues --    0.11795   0.26850   0.32859   0.32859   0.39931
  Beta virt. eigenvalues --    0.71842   0.71842   0.85662   0.93651   1.15194
  Beta virt. eigenvalues --    1.15194   1.19400   1.26415   1.43788   1.67793
  Beta virt. eigenvalues --    1.67793   2.03970   2.03970   2.15928   2.31138
  Beta virt. eigenvalues --    2.31138   2.31197   2.67438   2.67438   2.81471
  Beta virt. eigenvalues --    2.96031   2.99449   2.99449   3.16210   3.16210
  Beta virt. eigenvalues --    3.58338   3.81308   3.81308   4.37077   4.94474
     Alpha Molecular Orbital Coefficients
                           1         2         3         4         5
                        (A)--O    (A)--O    (A)--O    (A)--O    (A)--O
     EIGENVALUES --   -11.24052  -0.97045  -0.62844  -0.57909  -0.57909
   1 1   C  1S          0.99541  -0.19975   0.02699   0.00000   0.00000
   2        2S          0.02991   0.38668  -0.04283   0.00000   0.00000
   3        2PX         0.00000   0.00001   0.00021   0.28363   0.34829
   4        2PY        -0.00001  -0.00051  -0.00768   0.34817  -0.28352
   5        2PZ         0.00019   0.01852   0.27817   0.00939  -0.00809
   6        3S         -0.01318   0.39642  -0.05975   0.00000   0.00000
   7        3PX         0.00000   0.00000   0.00011   0.13755   0.16891
   8        3PY         0.00002  -0.00015  -0.00407   0.16885  -0.13750
   9        3PZ        -0.00081   0.00538   0.14732   0.00456  -0.00392
  10        4XX        -0.00237  -0.00345  -0.00739   0.00816   0.02074
  11        4YY        -0.00237  -0.00344  -0.00737  -0.00782  -0.02101
  12        4ZZ        -0.00198   0.00686   0.01987  -0.00034   0.00027
  13        4XY         0.00000   0.00000   0.00000  -0.02380   0.00964
  14        4XZ         0.00000   0.00001   0.00002  -0.00650  -0.00691
  15        4YZ        -0.00001  -0.00033  -0.00087  -0.00739   0.00515
  16 2   H  1S         -0.00001   0.13652  -0.06211   0.14982   0.22834
  17        2S          0.00236   0.03388  -0.04436   0.11720   0.17863
  18        3PX         0.00017  -0.01310   0.00470  -0.00621  -0.01063
  19        3PY        -0.00002   0.00128  -0.00060   0.00582  -0.00241
  20        3PZ         0.00000   0.00262   0.00406   0.00195   0.00266
  21 3   H  1S         -0.00001   0.13652  -0.06211   0.12284  -0.24392
  22        2S          0.00236   0.03388  -0.04436   0.09609  -0.19082
  23        3PX        -0.00007   0.00538  -0.00193   0.00734  -0.00196
  24        3PY         0.00016  -0.01209   0.00419  -0.00284   0.01130
  25        3PZ         0.00000   0.00223   0.00420   0.00138  -0.00259
  26 4   H  1S         -0.00001   0.13652  -0.06211  -0.27266   0.01558
  27        2S          0.00236   0.03388  -0.04437  -0.21330   0.01219
  28        3PX        -0.00010   0.00772  -0.00276  -0.00695   0.00545
  29        3PY        -0.00014   0.01060  -0.00394  -0.01011  -0.00307
  30        3PZ         0.00000   0.00286   0.00397  -0.00352   0.00010
  31 5   H  1S          0.00015   0.07698   0.25526   0.00000   0.00000
  32        2S          0.00376   0.02167   0.18374   0.00000   0.00000
  33        3PX         0.00000  -0.00001   0.00000   0.00258   0.00316
  34        3PY        -0.00001   0.00026  -0.00013   0.00316  -0.00258
  35        3PZ         0.00040  -0.00935   0.00476   0.00009  -0.00007
  36 6   H  1S         -0.00042   0.03852   0.27814   0.00000   0.00000
  37        2S         -0.00150   0.01827   0.26420   0.00000   0.00000
  38        3PX         0.00000   0.00000  -0.00001   0.00040   0.00049
  39        3PY        -0.00001   0.00012   0.00036   0.00049  -0.00040
  40        3PZ         0.00032  -0.00437  -0.01321   0.00001  -0.00001
                           6         7         8         9        10
                        (A)--O    (A)--V    (A)--V    (A)--V    (A)--V
     EIGENVALUES --    -0.35403   0.25392   0.31681   0.31681   0.34968
   1 1   C  1S         -0.04449  -0.14284   0.00000   0.00000   0.05111
   2        2S          0.09599   0.11133   0.00000   0.00000  -0.05116
   3        2PX         0.00038  -0.00009   0.16444   0.26100  -0.00012
   4        2PY        -0.01375   0.00326  -0.26089   0.16439   0.00427
   5        2PZ         0.49805  -0.11806  -0.00733   0.00434  -0.15445
   6        3S          0.27832   2.51596   0.00001   0.00000  -0.80666
   7        3PX         0.00033  -0.00028   0.82004   1.30154  -0.00080
   8        3PY        -0.01198   0.01020  -1.30103   0.81976   0.02888
   9        3PZ         0.43413  -0.36934  -0.03654   0.02164  -1.04628
  10        4XX        -0.00808  -0.01592  -0.00620  -0.00522  -0.00951
  11        4YY        -0.00806  -0.01591   0.00649   0.00504  -0.00947
  12        4ZZ         0.01337   0.00003  -0.00030   0.00018   0.04306
  13        4XY         0.00000   0.00000  -0.00615   0.00699   0.00000
  14        4XZ         0.00002   0.00001   0.00374   0.00639   0.00005
  15        4YZ        -0.00068  -0.00051  -0.00598   0.00406  -0.00168
  16 2   H  1S         -0.03803  -0.02167  -0.04095  -0.05222  -0.06099
  17        2S         -0.06907  -1.19106  -1.20914  -1.54202  -0.08251
  18        3PX         0.00255   0.00115   0.00422   0.00680   0.00037
  19        3PY        -0.00052   0.00001  -0.00719   0.00454   0.00003
  20        3PZ         0.00929  -0.00458   0.00069   0.00126  -0.00251
  21 3   H  1S         -0.03803  -0.02167   0.06569  -0.00935  -0.06098
  22        2S         -0.06907  -1.19106   1.93999  -0.27614  -0.08251
  23        3PX        -0.00104  -0.00048   0.00433   0.00723  -0.00016
  24        3PY         0.00208   0.00118  -0.00669   0.00446   0.00041
  25        3PZ         0.00937  -0.00454  -0.00163   0.00032  -0.00250
  26 4   H  1S         -0.03803  -0.02167  -0.02475   0.06157  -0.06099
  27        2S         -0.06907  -1.19105  -0.73086   1.81816  -0.08251
  28        3PX        -0.00149  -0.00068   0.00465   0.00692  -0.00022
  29        3PY        -0.00233  -0.00081  -0.00705   0.00419  -0.00024
  30        3PZ         0.00924  -0.00460   0.00034  -0.00124  -0.00252
  31 5   H  1S         -0.03059   0.03626   0.00000   0.00000   0.25297
  32        2S         -0.03903  -0.26552   0.00000   0.00000   2.84802
  33        3PX        -0.00002   0.00000   0.00223   0.00354   0.00000
  34        3PY         0.00084  -0.00003  -0.00353   0.00223   0.00005
  35        3PZ        -0.03029   0.00092  -0.00010   0.00006  -0.00192
  36 6   H  1S         -0.26290   0.03709   0.00000   0.00000   0.03005
  37        2S         -0.47195   0.15974   0.00000   0.00000  -2.08810
  38        3PX         0.00000   0.00000   0.00261   0.00414  -0.00001
  39        3PY        -0.00006   0.00006  -0.00414   0.00261   0.00035
  40        3PZ         0.00228  -0.00232  -0.00012   0.00007  -0.01255
                          11        12        13        14        15
                        (A)--V    (A)--V    (A)--V    (A)--V    (A)--V
     EIGENVALUES --     0.71217   0.71217   0.74863   0.88808   1.13936
   1 1   C  1S          0.00000   0.00000   0.01997   0.02520   0.00000
   2        2S          0.00000   0.00000   0.04096   0.14775   0.00001
   3        2PX        -0.70326   0.13330  -0.00073   0.00019  -0.51639
   4        2PY        -0.13326  -0.70299   0.02638  -0.00675   0.60332
   5        2PZ        -0.00314  -0.01951  -0.95549   0.24451   0.01704
   6        3S          0.00000   0.00000  -0.29758  -0.33504  -0.00002
   7        3PX         1.46021  -0.27677   0.00105   0.00012   0.84167
   8        3PY         0.27670   1.45965  -0.03817  -0.00432  -0.98335
   9        3PZ         0.00653   0.04050   1.38291   0.15639  -0.02778
  10        4XX        -0.05225   0.02826   0.04619   0.06259   0.18941
  11        4YY         0.05197  -0.02978   0.04610   0.06252  -0.19388
  12        4ZZ         0.00029   0.00152  -0.07938  -0.03166   0.00448
  13        4XY         0.03175   0.06056   0.00000   0.00000   0.13787
  14        4XZ         0.03310  -0.00445  -0.00011  -0.00008  -0.07733
  15        4YZ         0.00773   0.03117   0.00400   0.00300   0.08831
  16 2   H  1S         -0.46957   0.14017   0.21302   0.22642   0.55899
  17        2S         -0.24563   0.07332   0.08462   0.07858  -1.16387
  18        3PX         0.03992  -0.00952  -0.00331   0.02535   0.09558
  19        3PY         0.00241   0.02246   0.00041  -0.00265   0.03730
  20        3PZ        -0.00375   0.00176  -0.00248   0.00126  -0.03296
  21 3   H  1S          0.11340  -0.47675   0.21302   0.22642  -0.73991
  22        2S          0.05932  -0.24938   0.08462   0.07858   1.54056
  23        3PX         0.02373  -0.01166   0.00136  -0.01041   0.03221
  24        3PY         0.00015   0.03878  -0.00297   0.02322  -0.11930
  25        3PZ         0.00090  -0.00277  -0.00258   0.00200   0.04157
  26 4   H  1S          0.35617   0.33658   0.21302   0.22641   0.18091
  27        2S          0.18631   0.17607   0.08463   0.07858  -0.37666
  28        3PX         0.02998   0.00343   0.00195  -0.01494  -0.06990
  29        3PY         0.01518   0.03235   0.00276  -0.02068   0.01437
  30        3PZ         0.00327   0.00360  -0.00242   0.00079  -0.01053
  31 5   H  1S          0.00000   0.00001  -0.03823   0.46952   0.00000
  32        2S          0.00000   0.00000  -0.33724  -0.74220   0.00000
  33        3PX         0.03321  -0.00629   0.00007   0.00006  -0.01195
  34        3PY         0.00629   0.03319  -0.00258  -0.00218   0.01397
  35        3PZ         0.00015   0.00092   0.09365   0.07889   0.00039
  36 6   H  1S          0.00000   0.00000   0.02923   0.92881   0.00000
  37        2S          0.00000  -0.00001  -0.15106  -0.61519   0.00000
  38        3PX         0.02400  -0.00455   0.00000   0.00000   0.00907
  39        3PY         0.00455   0.02399   0.00001   0.00010  -0.01059
  40        3PZ         0.00011   0.00066  -0.00026  -0.00363  -0.00030
                          16        17        18        19        20
                        (A)--V    (A)--V    (A)--V    (A)--V    (A)--V
     EIGENVALUES --     1.13936   1.17212   1.24470   1.40859   1.63117
   1 1   C  1S          0.00000   0.04918   0.00128  -0.12356   0.00000
   2        2S          0.00000  -1.25763   0.38617  -1.81055   0.00001
   3        2PX        -0.60356   0.00022   0.00017  -0.00020  -0.02207
   4        2PY        -0.51621  -0.00832  -0.00612   0.00749   0.02899
   5        2PZ        -0.01379   0.30145   0.22169  -0.27105   0.00082
   6        3S          0.00000   2.56589  -1.14016   4.89685  -0.00002
   7        3PX         0.98374  -0.00045  -0.00071   0.00064   0.00778
   8        3PY         0.84137   0.01696   0.02586  -0.02324  -0.01022
   9        3PZ         0.02248  -0.61435  -0.93646   0.84167  -0.00030
  10        4XX         0.11732   0.06178   0.08742  -0.12460  -0.21566
  11        4YY        -0.11350   0.06158   0.08719  -0.12457   0.19129
  12        4ZZ        -0.00382  -0.19356  -0.20581  -0.09459   0.02438
  13        4XY        -0.21620   0.00001   0.00001   0.00000  -0.16355
  14        4XZ        -0.10071  -0.00022  -0.00026   0.00003  -0.38209
  15        4YZ        -0.08439   0.00814   0.00934  -0.00096   0.50248
  16 2   H  1S          0.53163   0.51666   0.06068  -0.41746   0.02203
  17        2S         -1.10691  -1.05455  -0.14920  -0.68586  -0.01655
  18        3PX         0.08146   0.09193  -0.00099  -0.00309  -0.05344
  19        3PY        -0.05610  -0.00934  -0.00122  -0.00027  -0.13142
  20        3PZ        -0.03387  -0.00533   0.04800   0.02133  -0.20104
  21 3   H  1S          0.21828   0.51665   0.06068  -0.41746  -0.03136
  22        2S         -0.45449  -1.05453  -0.14920  -0.68585   0.02357
  23        3PX        -0.07301  -0.03776   0.00046   0.00129   0.01789
  24        3PY         0.00678   0.08446  -0.00226  -0.00344   0.06091
  25        3PZ        -0.01300  -0.00265   0.04797   0.02124   0.28277
  26 4   H  1S         -0.74992   0.51665   0.06068  -0.41745   0.00933
  27        2S          1.56140  -1.05453  -0.14919  -0.68586  -0.00701
  28        3PX         0.05921  -0.05418   0.00064   0.00185   0.16019
  29        3PY         0.10719  -0.07471  -0.00049   0.00194  -0.09323
  30        3PZ         0.04841  -0.00703   0.04802   0.02139  -0.08635
  31 5   H  1S          0.00000  -0.06042  -1.16149  -0.07916   0.00000
  32        2S          0.00000   0.37704   3.33345  -2.19337   0.00002
  33        3PX        -0.01397   0.00001   0.00014   0.00009  -0.13653
  34        3PY        -0.01195  -0.00037  -0.00499  -0.00332   0.17936
  35        3PZ        -0.00032   0.01323   0.18088   0.12043   0.00505
  36 6   H  1S          0.00000  -0.32658   0.46621   0.48102   0.00000
  37        2S          0.00000   0.09967  -1.88660   0.53398  -0.00001
  38        3PX         0.01060  -0.00001   0.00013   0.00008  -0.05163
  39        3PY         0.00907   0.00049  -0.00475  -0.00288   0.06782
  40        3PZ         0.00024  -0.01785   0.17210   0.10437   0.00191
                          21        22        23        24        25
                        (A)--V    (A)--V    (A)--V    (A)--V    (A)--V
     EIGENVALUES --     1.63117   2.01762   2.01762   2.10116   2.30087
   1 1   C  1S          0.00000   0.00000   0.00000   0.05911   0.00000
   2        2S          0.00000   0.00001   0.00001  -0.04535   0.00000
   3        2PX         0.02900  -0.06302   0.07214  -0.00009   0.00706
   4        2PY         0.02206   0.07211   0.06300   0.00321  -0.09000
   5        2PZ         0.00059   0.00204   0.00169  -0.11637  -0.00249
   6        3S         -0.00001  -0.00003  -0.00005  -0.59748   0.00000
   7        3PX        -0.01022   0.13579  -0.15544   0.00020  -0.05420
   8        3PY        -0.00777  -0.15538  -0.13574  -0.00721   0.69137
   9        3PZ        -0.00021  -0.00440  -0.00364   0.26133   0.01913
  10        4XX         0.15170  -0.02761   0.01663  -0.24970  -0.17674
  11        4YY        -0.16898   0.03426  -0.01111  -0.24890   0.18868
  12        4ZZ         0.01728  -0.00664  -0.00552   0.79615  -0.01193
  13        4XY        -0.26176  -0.02280  -0.02837  -0.00002  -0.50212
  14        4XZ         0.48910   0.11862  -0.13728   0.00092   0.00609
  15        4YZ         0.37244  -0.13532  -0.11952  -0.03333  -0.24615
  16 2   H  1S         -0.02349   0.04887  -0.04552   0.28614   0.10041
  17        2S          0.01766  -0.11714   0.10913   0.01959   0.01357
  18        3PX         0.02787   0.05293  -0.05911   0.07251   0.02059
  19        3PY        -0.14214  -0.05766  -0.04129  -0.00319  -0.36556
  20        3PZ         0.20665   0.15525  -0.14725  -0.15560   0.01520
  21 3   H  1S         -0.00733  -0.06386  -0.01955   0.28614  -0.52548
  22        2S          0.00551   0.15308   0.04689   0.01958  -0.07103
  23        3PX        -0.17784   0.04949  -0.05158  -0.02994   0.01114
  24        3PY        -0.06721  -0.05514  -0.04675   0.07091  -0.32318
  25        3PZ         0.06398  -0.20657  -0.06404  -0.15347  -0.14136
  26 4   H  1S          0.03082   0.01500   0.06509   0.28614   0.42507
  27        2S         -0.02317  -0.03594  -0.15601   0.01959   0.05745
  28        3PX        -0.01384   0.04480  -0.05784  -0.04292   0.04898
  29        3PY         0.08475  -0.05566  -0.05913  -0.05484  -0.34076
  30        3PZ        -0.27394   0.04656   0.20735  -0.15694   0.09768
  31 5   H  1S         -0.00001  -0.00001  -0.00001  -0.30362   0.00000
  32        2S          0.00002   0.00003   0.00004   0.42869   0.00000
  33        3PX         0.17943  -0.35371   0.40489  -0.00022   0.00770
  34        3PY         0.13648   0.40473   0.35358   0.00787  -0.09826
  35        3PZ         0.00363   0.01143   0.00944  -0.28553  -0.00272
  36 6   H  1S          0.00000   0.00000   0.00000   0.40138   0.00000
  37        2S         -0.00001  -0.00001  -0.00002  -0.45387  -0.00001
  38        3PX         0.06785  -0.41729   0.47767   0.00020   0.01802
  39        3PY         0.05161   0.47748   0.41714  -0.00732  -0.22990
  40        3PZ         0.00137   0.01349   0.01114   0.26484  -0.00636
                          26        27        28        29        30
                        (A)--V    (A)--V    (A)--V    (A)--V    (A)--V
     EIGENVALUES --     2.30087   2.31567   2.64966   2.64966   2.80622
   1 1   C  1S          0.00000   0.00000   0.00000   0.00000  -0.01367
   2        2S          0.00000   0.00000   0.00000   0.00000  -0.20194
   3        2PX        -0.09003   0.00000   0.05971   0.12115   0.00008
   4        2PY        -0.00705   0.00000  -0.12110   0.05969  -0.00287
   5        2PZ        -0.00013   0.00000  -0.00339   0.00155   0.10397
   6        3S          0.00000   0.00000   0.00000   0.00000   0.38883
   7        3PX         0.69163   0.00001   0.01552   0.03150   0.00045
   8        3PY         0.05419  -0.00002  -0.03149   0.01552  -0.01649
   9        3PZ         0.00097   0.00000  -0.00088   0.00040   0.59753
  10        4XX         0.43404   0.00001  -0.12357  -0.12815   0.17737
  11        4YY        -0.43310  -0.00001   0.14368   0.11878   0.17692
  12        4ZZ        -0.00094   0.00000  -0.02011   0.00937  -0.40944
  13        4XY        -0.19707   0.00001  -0.15454   0.13158   0.00001
  14        4XZ        -0.25846   0.00000   0.20157   0.42117  -0.00051
  15        4YZ        -0.03345   0.00001  -0.41257   0.20934   0.01871
  16 2   H  1S         -0.54880  -0.00001   0.09610   0.15305  -0.07440
  17        2S         -0.07418   0.00000  -0.10360  -0.16501   0.06456
  18        3PX        -0.32168   0.05955   0.04971   0.03787  -0.20637
  19        3PY        -0.02942   0.57728   0.18590  -0.10423   0.03747
  20        3PZ        -0.13888   0.01589  -0.31592  -0.51418  -0.58786
  21 3   H  1S          0.18744   0.00002  -0.18059   0.00670  -0.07440
  22        2S          0.02533   0.00000   0.19470  -0.00722   0.06456
  23        3PX        -0.35960  -0.52990   0.01742  -0.19618   0.08412
  24        3PY        -0.04384  -0.23708  -0.07393  -0.08475  -0.17263
  25        3PZ         0.04630  -0.00614   0.60123  -0.02456  -0.59388
  26 4   H  1S          0.36136  -0.00001   0.08450  -0.15975  -0.07440
  27        2S          0.04884   0.00000  -0.09110   0.17222   0.06456
  28        3PX        -0.34861   0.47034  -0.16977  -0.04998   0.12090
  29        3PY        -0.00744  -0.34017   0.09622   0.08637   0.18390
  30        3PZ         0.09113  -0.00975  -0.27949   0.53607  -0.58407
  31 5   H  1S          0.00000   0.00000   0.00000   0.00000   0.02314
  32        2S          0.00000   0.00000   0.00000   0.00001  -0.55831
  33        3PX        -0.09830   0.00000   0.16182   0.32835   0.00004
  34        3PY        -0.00770   0.00000  -0.32822   0.16177  -0.00134
  35        3PZ        -0.00014   0.00000  -0.00918   0.00421   0.04856
  36 6   H  1S          0.00000   0.00000   0.00000   0.00000   0.02812
  37        2S          0.00000   0.00000   0.00000   0.00000   0.15059
  38        3PX        -0.22999   0.00000  -0.21578  -0.43785   0.00005
  39        3PY        -0.01802   0.00001   0.43767  -0.21571  -0.00173
  40        3PZ        -0.00032   0.00000   0.01224  -0.00562   0.06274
                          31        32        33        34        35
                        (A)--V    (A)--V    (A)--V    (A)--V    (A)--V
     EIGENVALUES --     2.92550   2.98315   2.98315   3.15132   3.15132
   1 1   C  1S         -0.06393   0.00000   0.00001   0.00000   0.00000
   2        2S         -0.10288   0.00000   0.00001   0.00000   0.00000
   3        2PX         0.00002  -0.05600  -0.02380  -0.21450  -0.00503
   4        2PY        -0.00064   0.02379  -0.05598   0.00502  -0.21442
   5        2PZ         0.02298   0.00070  -0.00153   0.00030  -0.00592
   6        3S          1.21393   0.00000  -0.00010   0.00000   0.00001
   7        3PX         0.00041  -0.46311  -0.19683  -0.34746  -0.00815
   8        3PY        -0.01554   0.19675  -0.46294   0.00814  -0.34733
   9        3PZ         0.56182   0.00578  -0.01268   0.00049  -0.00958
  10        4XX        -0.23219   0.17448   0.01628   0.41150  -0.12024
  11        4YY        -0.23171  -0.18021  -0.00344  -0.40977   0.09218
  12        4ZZ         0.40654   0.00573  -0.01283  -0.00173   0.02806
  13        4XY        -0.00003   0.02652  -0.19883  -0.15496  -0.47403
  14        4XZ         0.00055  -0.27056  -0.12074   0.58086   0.00075
  15        4YZ        -0.02039   0.10943  -0.27100  -0.02666   0.58857
  16 2   H  1S         -0.01504  -0.02197  -0.00677   0.01783  -0.00142
  17        2S         -0.18280   0.35526   0.10957   0.32689  -0.02598
  18        3PX         0.14328  -0.05711   0.02510  -0.31453   0.09452
  19        3PY        -0.01048  -0.11921   0.37738   0.09615   0.66622
  20        3PZ        -0.15539   0.25952   0.09144  -0.35875   0.04706
  21 3   H  1S         -0.01504   0.01685  -0.01563  -0.00769   0.01615
  22        2S         -0.18279  -0.27251   0.25290  -0.14094   0.29608
  23        3PX        -0.05899   0.23269   0.27967   0.50025   0.38372
  24        3PY         0.13581   0.14798   0.08440   0.37126  -0.13803
  25        3PZ        -0.15119  -0.19765   0.18918   0.16580  -0.33166
  26 4   H  1S         -0.01504   0.00512   0.02242  -0.01014  -0.01473
  27        2S         -0.18284  -0.08275  -0.36243  -0.18594  -0.27011
  28        3PX        -0.08463   0.30810  -0.09919   0.34379  -0.46582
  29        3PY        -0.11247  -0.23426   0.02170  -0.47981   0.00111
  30        3PZ        -0.15807  -0.06791  -0.26739   0.19221   0.29920
  31 5   H  1S         -0.53049   0.00000   0.00004   0.00000   0.00000
  32        2S         -1.03438   0.00000   0.00009   0.00000  -0.00001
  33        3PX         0.00034   0.70862   0.30118  -0.18955  -0.00444
  34        3PY        -0.01164  -0.30105   0.70836   0.00444  -0.18948
  35        3PZ         0.42346  -0.00885   0.01929   0.00027  -0.00522
  36 6   H  1S         -0.06285   0.00000   0.00000   0.00000   0.00000
  37        2S          0.66287   0.00000  -0.00005   0.00000   0.00001
  38        3PX        -0.00058  -0.54109  -0.22998   0.15299   0.00359
  39        3PY         0.02039   0.22988  -0.54089  -0.00358   0.15293
  40        3PZ        -0.74039   0.00676  -0.01470  -0.00022   0.00421
                          36        37        38        39        40
                        (A)--V    (A)--V    (A)--V    (A)--V    (A)--V
     EIGENVALUES --     3.57475   3.80389   3.80389   4.34231   4.92095
   1 1   C  1S         -0.13212   0.00000   0.00000  -0.17824  -0.44518
   2        2S          1.06862   0.00001   0.00000   0.92355   2.60286
   3        2PX        -0.00020   0.12989   0.97418   0.00018   0.00001
   4        2PY         0.00730  -0.97381   0.12986  -0.00666  -0.00041
   5        2PZ        -0.26415  -0.02698   0.00285   0.24134   0.01500
   6        3S          0.85988   0.00000   0.00000   0.67185   2.14297
   7        3PX        -0.00017   0.06286   0.47147   0.00016   0.00015
   8        3PY         0.00605  -0.47129   0.06285  -0.00572  -0.00523
   9        3PZ        -0.21927  -0.01306   0.00138   0.20714   0.18939
  10        4XX         0.17624   0.41341   0.87586  -1.03865  -1.93130
  11        4YY         0.17552  -0.43318  -0.87309  -1.03799  -1.93119
  12        4ZZ        -0.77356   0.01977  -0.00277  -0.16676  -1.77450
  13        4XY         0.00002   1.01348  -0.46571  -0.00002   0.00000
  14        4XZ        -0.00083  -0.02836  -0.43342   0.00076   0.00014
  15        4YZ         0.03027   0.40506  -0.08344  -0.02779  -0.00500
  16 2   H  1S         -0.35927  -0.19198  -0.80074   0.25086   0.23143
  17        2S         -0.34363  -0.10510  -0.43838  -0.08239  -0.36091
  18        3PX         0.70689   0.24053   1.07003  -0.27900  -0.26941
  19        3PY        -0.06773  -0.17139  -0.06747   0.02721   0.02622
  20        3PZ        -0.18852  -0.06803  -0.26594   0.05721   0.05724
  21 3   H  1S         -0.35927   0.78945   0.23411   0.25086   0.23143
  22        2S         -0.34363   0.43220   0.12817  -0.08239  -0.36091
  23        3PX        -0.29052   0.39267   0.26096   0.11465   0.11070
  24        3PY         0.65365  -0.98930  -0.22872  -0.25750  -0.24870
  25        3PZ        -0.16785   0.23195   0.07046   0.04905   0.04937
  26 4   H  1S         -0.35926  -0.59748   0.56663   0.25086   0.23143
  27        2S         -0.34363  -0.32710   0.31021  -0.08239  -0.36091
  28        3PX        -0.41680  -0.38452   0.53415   0.16449   0.15883
  29        3PY        -0.57051  -0.70374   0.54483   0.22564   0.21783
  30        3PZ        -0.20155  -0.21558   0.20093   0.06235   0.06221
  31 5   H  1S          0.26968   0.00000   0.00000   0.70695  -0.34235
  32        2S          0.21144   0.00000   0.00000  -0.26614  -0.75626
  33        3PX         0.00012  -0.00960  -0.07196   0.00100  -0.00052
  34        3PY        -0.00421   0.07193  -0.00959  -0.03628   0.01864
  35        3PZ         0.15292   0.00199  -0.00021   1.31499  -0.67562
  36 6   H  1S         -0.16979   0.00000   0.00000  -0.80697   0.46353
  37        2S         -0.15117   0.00000   0.00000   0.01463   0.32184
  38        3PX         0.00028   0.00218   0.01635   0.00084  -0.00042
  39        3PY        -0.01017  -0.01634   0.00218  -0.03022   0.01523
  40        3PZ         0.36861  -0.00045   0.00005   1.09532  -0.55213
     Beta Molecular Orbital Coefficients.
                           1         2         3         4         5
                        (A)--O    (A)--O    (A)--O    (A)--O    (A)--O
     EIGENVALUES --   -11.21821  -0.89601  -0.56483  -0.56483  -0.54732
   1 1   C  1S          0.99614  -0.18723   0.00000   0.00000   0.03088
   2        2S          0.02595   0.34686   0.00000   0.00000  -0.06454
   3        2PX         0.00000  -0.00004   0.25913   0.33207   0.00011
   4        2PY         0.00001   0.00153   0.33195  -0.25902  -0.00414
   5        2PZ        -0.00024  -0.05560   0.00897  -0.00740   0.14979
   6        3S         -0.01358   0.32486   0.00000   0.00000  -0.12608
   7        3PX         0.00000   0.00000   0.11952   0.15316   0.00003
   8        3PY         0.00003  -0.00005   0.15310  -0.11947  -0.00111
   9        3PZ        -0.00094   0.00170   0.00414  -0.00341   0.04025
  10        4XX        -0.00064   0.00947   0.00781   0.02112  -0.00658
  11        4YY        -0.00065   0.00945  -0.00721  -0.02160  -0.00656
  12        4ZZ        -0.00231  -0.02022  -0.00060   0.00047   0.01892
  13        4XY         0.00000   0.00000  -0.02414   0.00939   0.00000
  14        4XZ         0.00000  -0.00003  -0.01058  -0.01245   0.00002
  15        4YZ         0.00005   0.00095  -0.01290   0.00921  -0.00081
  16 2   H  1S         -0.00014   0.15788   0.15366   0.24517  -0.05895
  17        2S          0.00239   0.06633   0.13113   0.20922  -0.04813
  18        3PX         0.00027  -0.01305  -0.00551  -0.01008   0.00408
  19        3PY        -0.00003   0.00127   0.00620  -0.00267  -0.00049
  20        3PZ        -0.00004   0.00286   0.00306   0.00454   0.00238
  21 3   H  1S         -0.00014   0.15788   0.13549  -0.25566  -0.05895
  22        2S          0.00239   0.06632   0.11562  -0.21818  -0.04813
  23        3PX        -0.00011   0.00536   0.00762  -0.00130  -0.00167
  24        3PY         0.00025  -0.01205  -0.00258   0.01071   0.00368
  25        3PZ        -0.00003   0.00248   0.00247  -0.00450   0.00250
  26 4   H  1S         -0.00014   0.15788  -0.28916   0.01049  -0.05894
  27        2S          0.00239   0.06633  -0.24676   0.00895  -0.04812
  28        3PX        -0.00016   0.00769  -0.00656   0.00567  -0.00240
  29        3PY        -0.00022   0.01055  -0.00933  -0.00359  -0.00339
  30        3PZ        -0.00004   0.00310  -0.00568   0.00009   0.00230
  31 5   H  1S          0.00018   0.08101   0.00001   0.00000   0.33315
  32        2S          0.00401   0.02709   0.00001   0.00000   0.44961
  33        3PX         0.00000   0.00000   0.00220   0.00282   0.00001
  34        3PY        -0.00001   0.00011   0.00282  -0.00220  -0.00019
  35        3PZ         0.00026  -0.00391   0.00008  -0.00006   0.00694
  36 6   H  1S         -0.00031   0.03744   0.00000   0.00000   0.22739
  37        2S         -0.00155   0.02439   0.00000   0.00000   0.13118
  38        3PX         0.00000   0.00000   0.00057   0.00073  -0.00002
  39        3PY        -0.00001   0.00015   0.00073  -0.00057   0.00054
  40        3PZ         0.00026  -0.00531   0.00002  -0.00002  -0.01970
                           6         7         8         9        10
                        (A)--V    (A)--V    (A)--V    (A)--V    (A)--V
     EIGENVALUES --     0.11795   0.26850   0.32859   0.32859   0.39931
   1 1   C  1S          0.05740  -0.14671   0.00000   0.00000   0.05046
   2        2S         -0.07414   0.09630   0.00000   0.00000  -0.02156
   3        2PX        -0.00026  -0.00010   0.15715   0.25825  -0.00010
   4        2PY         0.00934   0.00371  -0.25815   0.15709   0.00368
   5        2PZ        -0.33850  -0.13456  -0.00725   0.00414  -0.13316
   6        3S         -0.41823   2.57790   0.00001   0.00000  -0.81623
   7        3PX        -0.00039  -0.00028   0.81981   1.34724  -0.00094
   8        3PY         0.01415   0.01038  -1.34671   0.81952   0.03401
   9        3PZ        -0.51268  -0.37584  -0.03780   0.02160  -1.23218
  10        4XX        -0.00293  -0.00788  -0.00415  -0.00362  -0.00954
  11        4YY        -0.00292  -0.00789   0.00390   0.00375  -0.00951
  12        4ZZ         0.00474  -0.01764   0.00025  -0.00014   0.03625
  13        4XY         0.00000   0.00000  -0.00407   0.00493   0.00000
  14        4XZ         0.00001  -0.00001  -0.00323  -0.00500   0.00004
  15        4YZ        -0.00024   0.00031   0.00526  -0.00301  -0.00146
  16 2   H  1S          0.02072  -0.00583  -0.03158  -0.04159  -0.05756
  17        2S          0.14425  -1.19977  -1.19563  -1.57471  -0.08852
  18        3PX        -0.00234   0.00048   0.00382   0.00674   0.00000
  19        3PY         0.00056   0.00009  -0.00847   0.00544   0.00013
  20        3PZ        -0.01171  -0.00520  -0.00029   0.00008  -0.00485
  21 3   H  1S          0.02072  -0.00583   0.05181  -0.00655  -0.05755
  22        2S          0.14425  -1.19977   1.96155  -0.24809  -0.08853
  23        3PX         0.00095  -0.00020   0.00428   0.00875   0.00000
  24        3PY        -0.00181   0.00059  -0.00647   0.00497   0.00013
  25        3PZ        -0.01178  -0.00518  -0.00010   0.00012  -0.00485
  26 4   H  1S          0.02072  -0.00583  -0.02023   0.04815  -0.05756
  27        2S          0.14425  -1.19977  -0.76592   1.82280  -0.08852
  28        3PX         0.00136  -0.00029   0.00579   0.00734   0.00000
  29        3PY         0.00222  -0.00025  -0.00787   0.00347   0.00013
  30        3PZ        -0.01167  -0.00520  -0.00025   0.00017  -0.00485
  31 5   H  1S         -0.02629   0.03551   0.00000   0.00000   0.23894
  32        2S         -0.19201  -0.33334   0.00000   0.00000   2.80716
  33        3PX         0.00001   0.00000   0.00206   0.00338   0.00000
  34        3PY        -0.00040  -0.00010  -0.00338   0.00206   0.00000
  35        3PZ         0.01462   0.00361  -0.00009   0.00005   0.00017
  36 6   H  1S          0.17450   0.04335   0.00000   0.00000   0.06183
  37        2S          0.72218   0.24094   0.00000   0.00000  -2.07661
  38        3PX         0.00000   0.00000   0.00282   0.00464   0.00000
  39        3PY         0.00017   0.00011  -0.00464   0.00282   0.00004
  40        3PZ        -0.00606  -0.00393  -0.00013   0.00007  -0.00139
                          11        12        13        14        15
                        (A)--V    (A)--V    (A)--V    (A)--V    (A)--V
     EIGENVALUES --     0.71842   0.71842   0.85662   0.93651   1.15194
   1 1   C  1S          0.00000   0.00000   0.04715  -0.02521   0.00000
   2        2S          0.00000   0.00000   0.13672  -0.04734   0.00001
   3        2PX        -0.68723   0.15025  -0.00074  -0.00030  -0.53613
   4        2PY        -0.15021  -0.68696   0.02683   0.01071   0.61499
   5        2PZ        -0.00362  -0.01908  -0.97212  -0.38792   0.01738
   6        3S          0.00000   0.00000  -0.74080   0.04063  -0.00001
   7        3PX         1.41777  -0.30997   0.00090  -0.00008   0.84693
   8        3PY         0.30988   1.41722  -0.03279   0.00304  -0.97150
   9        3PZ         0.00748   0.03936   1.18790  -0.11003  -0.02746
  10        4XX        -0.05183   0.02993   0.04486  -0.05082   0.19194
  11        4YY         0.05151  -0.03142   0.04478  -0.05079  -0.19530
  12        4ZZ         0.00033   0.00149  -0.06011  -0.00322   0.00336
  13        4XY         0.03370   0.06009   0.00000   0.00000   0.13637
  14        4XZ         0.03242  -0.00524  -0.00009   0.00004  -0.05892
  15        4YZ         0.00849   0.03038   0.00335  -0.00152   0.06538
  16 2   H  1S         -0.48129   0.15843   0.26884  -0.20924   0.55803
  17        2S         -0.20244   0.06664   0.14462  -0.05633  -1.15901
  18        3PX         0.03923  -0.01036  -0.00052  -0.03119   0.10086
  19        3PY         0.00351   0.02361   0.00023   0.00314   0.03966
  20        3PZ        -0.00419   0.00206  -0.00649   0.00290  -0.02883
  21 3   H  1S          0.10344  -0.49603   0.26884  -0.20924  -0.73035
  22        2S          0.04351  -0.20863   0.14462  -0.05633   1.51691
  23        3PX         0.02453  -0.01188   0.00020   0.01281   0.03245
  24        3PY         0.00185   0.03846  -0.00029  -0.02869  -0.12470
  25        3PZ         0.00095  -0.00332  -0.00650   0.00199   0.03560
  26 4   H  1S          0.37785   0.33760   0.26884  -0.20923   0.17231
  27        2S          0.15893   0.14200   0.14462  -0.05633  -0.35788
  28        3PX         0.03057   0.00161   0.00030   0.01838  -0.07410
  29        3PY         0.01526   0.03223   0.00059   0.02532   0.01713
  30        3PZ         0.00374   0.00388  -0.00648   0.00348  -0.00869
  31 5   H  1S          0.00000   0.00001   0.01576  -0.63942   0.00000
  32        2S          0.00000   0.00000  -0.11079   1.27450   0.00000
  33        3PX         0.03547  -0.00776   0.00008  -0.00003  -0.00837
  34        3PY         0.00775   0.03546  -0.00306   0.00110   0.00960
  35        3PZ         0.00019   0.00098   0.11085  -0.03976   0.00027
  36 6   H  1S          0.00000   0.00000   0.18511  -0.81194   0.00000
  37        2S          0.00000  -0.00001  -0.38068   0.16179   0.00000
  38        3PX         0.02308  -0.00505   0.00000   0.00002   0.00894
  39        3PY         0.00504   0.02307  -0.00006  -0.00078  -0.01026
  40        3PZ         0.00012   0.00064   0.00229   0.02811  -0.00029
                          16        17        18        19        20
                        (A)--V    (A)--V    (A)--V    (A)--V    (A)--V
     EIGENVALUES --     1.15194   1.19400   1.26415   1.43788   1.67793
   1 1   C  1S          0.00000   0.05680   0.00404  -0.12078   0.00000
   2        2S          0.00000  -1.19668   0.55360  -1.80329   0.00001
   3        2PX        -0.61524   0.00023   0.00021  -0.00024  -0.03845
   4        2PY        -0.53594  -0.00855  -0.00781   0.00862   0.05796
   5        2PZ        -0.01433   0.30980   0.28289  -0.31205   0.00163
   6        3S          0.00000   2.31132  -1.52104   4.86537  -0.00003
   7        3PX         0.97189  -0.00052  -0.00068   0.00065   0.01787
   8        3PY         0.84663   0.01935   0.02465  -0.02343  -0.02694
   9        3PZ         0.02264  -0.70094  -0.89263   0.84862  -0.00077
  10        4XX         0.11651   0.05480   0.09215  -0.12843  -0.20469
  11        4YY        -0.11354   0.05462   0.09195  -0.12841   0.18034
  12        4ZZ        -0.00297  -0.18227  -0.16767  -0.11023   0.02436
  13        4XY        -0.21971   0.00001   0.00001   0.00000  -0.18004
  14        4XZ        -0.07790  -0.00021  -0.00023   0.00002  -0.33467
  15        4YZ        -0.06594   0.00756   0.00828  -0.00058   0.50324
  16 2   H  1S          0.52115   0.52689   0.04859  -0.39352   0.04495
  17        2S         -1.08241  -1.03699  -0.02143  -0.69382  -0.03866
  18        3PX         0.08412   0.09423  -0.00441  -0.00234  -0.04661
  19        3PY        -0.06062  -0.00967  -0.00087  -0.00036  -0.14700
  20        3PZ        -0.02961  -0.00182   0.04811   0.02191  -0.19380
  21 3   H  1S          0.22269   0.52689   0.04859  -0.39351  -0.06981
  22        2S         -0.46253  -1.03697  -0.02143  -0.69381   0.06004
  23        3PX        -0.07838  -0.03870   0.00186   0.00098   0.01107
  24        3PY         0.00738   0.08647  -0.00541  -0.00277   0.04877
  25        3PZ        -0.01165   0.00094   0.04798   0.02184   0.29608
  26 4   H  1S         -0.74384   0.52689   0.04860  -0.39351   0.02487
  27        2S          1.54495  -1.03697  -0.02143  -0.69383  -0.02138
  28        3PX         0.06220  -0.05553   0.00266   0.00141   0.16329
  29        3PY         0.11242  -0.07668   0.00230   0.00131  -0.09438
  30        3PZ         0.04284  -0.00355   0.04819   0.02195  -0.10769
  31 5   H  1S          0.00000  -0.20433  -1.05679  -0.09570   0.00000
  32        2S          0.00000   0.78447   3.16798  -2.12699   0.00003
  33        3PX        -0.00960   0.00002   0.00014   0.00011  -0.13794
  34        3PY        -0.00836  -0.00062  -0.00494  -0.00389   0.20797
  35        3PZ        -0.00022   0.02233   0.17909   0.14108   0.00584
  36 6   H  1S          0.00000  -0.30737   0.63333   0.52041   0.00000
  37        2S          0.00000  -0.10828  -1.90965   0.48111  -0.00001
  38        3PX         0.01026   0.00000   0.00012   0.00008  -0.05407
  39        3PY         0.00894  -0.00006  -0.00450  -0.00281   0.08152
  40        3PZ         0.00024   0.00224   0.16309   0.10191   0.00229
                          21        22        23        24        25
                        (A)--V    (A)--V    (A)--V    (A)--V    (A)--V
     EIGENVALUES --     1.67793   2.03970   2.03970   2.15928   2.31138
   1 1   C  1S          0.00000   0.00000   0.00000   0.05131   0.00000
   2        2S          0.00000   0.00001   0.00001  -0.01353   0.00000
   3        2PX         0.05799  -0.04685   0.07840  -0.00008   0.00922
   4        2PY         0.03843   0.07837   0.04683   0.00295  -0.10095
   5        2PZ         0.00102   0.00220   0.00124  -0.10680  -0.00279
   6        3S         -0.00001  -0.00004  -0.00004  -0.57757   0.00000
   7        3PX        -0.02695   0.10480  -0.17538   0.00021  -0.06433
   8        3PY        -0.01786  -0.17531  -0.10477  -0.00760   0.70453
   9        3PZ        -0.00048  -0.00493  -0.00277   0.27537   0.01950
  10        4XX         0.16484  -0.02053   0.01804  -0.24467  -0.17806
  11        4YY        -0.17982   0.02858  -0.01350  -0.24388   0.18977
  12        4ZZ         0.01498  -0.00805  -0.00454   0.78554  -0.01171
  13        4XY        -0.24924  -0.02394  -0.01933  -0.00002  -0.48796
  14        4XZ         0.49053   0.09875  -0.16689   0.00090   0.00931
  15        4YZ         0.32423  -0.16534  -0.09978  -0.03283  -0.24137
  16 2   H  1S         -0.05466   0.03585  -0.04800   0.25954   0.10447
  17        2S          0.04701  -0.09252   0.12392   0.03179   0.01731
  18        3PX         0.02401   0.04498  -0.07244   0.07082   0.02504
  19        3PY        -0.13795  -0.06593  -0.02995  -0.00265  -0.36894
  20        3PZ         0.22694   0.14384  -0.19589  -0.16906   0.01871
  21 3   H  1S         -0.01160  -0.05949  -0.00703   0.25955  -0.51324
  22        2S          0.00998   0.15358   0.01818   0.03179  -0.08505
  23        3PX        -0.18534   0.04202  -0.06042  -0.02926   0.01554
  24        3PY        -0.07565  -0.06713  -0.03720   0.06973  -0.32627
  25        3PZ         0.04702  -0.24371  -0.02960  -0.16699  -0.15107
  26 4   H  1S          0.06626   0.02366   0.05505   0.25954   0.40878
  27        2S         -0.05698  -0.06105  -0.14209   0.03180   0.06774
  28        3PX        -0.03135   0.03331  -0.06849  -0.04193   0.05440
  29        3PY         0.08589  -0.06820  -0.05313  -0.05309  -0.34496
  30        3PZ        -0.27734   0.09422   0.22232  -0.17038   0.10357
  31 5   H  1S          0.00000  -0.00001  -0.00001  -0.27931   0.00000
  32        2S          0.00002   0.00003   0.00004   0.36738   0.00000
  33        3PX         0.20805  -0.28829   0.48244  -0.00023   0.01142
  34        3PY         0.13789   0.48225   0.28819   0.00821  -0.12509
  35        3PZ         0.00365   0.01352   0.00758  -0.29786  -0.00346
  36 6   H  1S          0.00000   0.00000   0.00000   0.41757   0.00000
  37        2S         -0.00001  -0.00001  -0.00002  -0.42918  -0.00001
  38        3PX         0.08156  -0.30349   0.50788   0.00020   0.02109
  39        3PY         0.05405   0.50768   0.30339  -0.00731  -0.23100
  40        3PZ         0.00143   0.01424   0.00798   0.26473  -0.00639
                          26        27        28        29        30
                        (A)--V    (A)--V    (A)--V    (A)--V    (A)--V
     EIGENVALUES --     2.31138   2.31197   2.67438   2.67438   2.81471
   1 1   C  1S          0.00000   0.00000   0.00000   0.00000   0.01716
   2        2S          0.00000   0.00000   0.00000   0.00000   0.21903
   3        2PX        -0.10099  -0.00003   0.07658   0.12872  -0.00009
   4        2PY        -0.00922   0.00008  -0.12867   0.07656   0.00312
   5        2PZ        -0.00018   0.00000  -0.00361   0.00201  -0.11310
   6        3S          0.00000   0.00000   0.00000   0.00000  -0.47665
   7        3PX         0.70480   0.00020   0.02292   0.03852  -0.00048
   8        3PY         0.06432  -0.00053  -0.03850   0.02291   0.01732
   9        3PZ         0.00124  -0.00001  -0.00108   0.00060  -0.62753
  10        4XX         0.42171   0.00023  -0.13565  -0.12013  -0.16714
  11        4YY        -0.42064  -0.00023   0.15536   0.10898  -0.16671
  12        4ZZ        -0.00107   0.00001  -0.01971   0.01115   0.39876
  13        4XY        -0.19873   0.00034  -0.14629   0.14587  -0.00001
  14        4XZ        -0.25374  -0.00006   0.23896   0.41235   0.00049
  15        4YZ        -0.03588   0.00018  -0.40299   0.24616  -0.01804
  16 2   H  1S         -0.53233  -0.00019   0.10514   0.14137   0.07405
  17        2S         -0.08822  -0.00003  -0.12089  -0.16255  -0.05085
  18        3PX        -0.32510   0.05946   0.06191   0.04514   0.20045
  19        3PY        -0.03439   0.57755   0.18199  -0.12467  -0.03698
  20        3PZ        -0.14803   0.01585  -0.34463  -0.47355   0.59215
  21 3   H  1S          0.17569   0.00043  -0.17500   0.02037   0.07405
  22        2S          0.02911   0.00007   0.20122  -0.02342  -0.05085
  23        3PX        -0.36344  -0.52999   0.00707  -0.20453  -0.08169
  24        3PY        -0.04854  -0.23685  -0.09358  -0.08025   0.16708
  25        3PZ         0.04756  -0.00602   0.57932  -0.06979   0.59800
  26 4   H  1S          0.35664  -0.00024   0.06986  -0.16174   0.07405
  27        2S          0.05910  -0.00004  -0.08033   0.18597  -0.05085
  28        3PX        -0.35203   0.47023  -0.18225  -0.03099  -0.11741
  29        3PY        -0.01203  -0.33992   0.10189   0.09169  -0.17920
  30        3PZ         0.09864  -0.00981  -0.22934   0.54036   0.58846
  31 5   H  1S          0.00000   0.00000   0.00000   0.00000   0.00730
  32        2S          0.00000   0.00000   0.00000   0.00000   0.62754
  33        3PX        -0.12514  -0.00003   0.17737   0.29811  -0.00007
  34        3PY        -0.01142   0.00009  -0.29799   0.17731   0.00234
  35        3PZ        -0.00022   0.00000  -0.00836   0.00467  -0.08485
  36 6   H  1S          0.00000   0.00000   0.00000   0.00000  -0.01684
  37        2S          0.00000   0.00000   0.00000   0.00000  -0.19831
  38        3PX        -0.23108  -0.00006  -0.26146  -0.43946  -0.00001
  39        3PY        -0.02109   0.00017   0.43928  -0.26137   0.00033
  40        3PZ        -0.00040   0.00000   0.01232  -0.00688  -0.01196
                          31        32        33        34        35
                        (A)--V    (A)--V    (A)--V    (A)--V    (A)--V
     EIGENVALUES --     2.96031   2.99449   2.99449   3.16210   3.16210
   1 1   C  1S         -0.06446   0.00000   0.00001   0.00000   0.00000
   2        2S         -0.05415   0.00000   0.00000   0.00000   0.00000
   3        2PX         0.00001  -0.07573  -0.03063  -0.20834  -0.00558
   4        2PY        -0.00061   0.03062  -0.07570   0.00558  -0.20826
   5        2PZ         0.02194   0.00090  -0.00207   0.00031  -0.00575
   6        3S          1.14859   0.00000  -0.00015   0.00001   0.00002
   7        3PX         0.00036  -0.46622  -0.18859  -0.33052  -0.00886
   8        3PY        -0.01406   0.18851  -0.46605   0.00885  -0.33039
   9        3PZ         0.50742   0.00556  -0.01279   0.00050  -0.00911
  10        4XX        -0.23492   0.19278   0.01462   0.40246  -0.11612
  11        4YY        -0.23441  -0.19790  -0.00251  -0.40057   0.08666
  12        4ZZ         0.43392   0.00512  -0.01211  -0.00189   0.02946
  13        4XY        -0.00004   0.02412  -0.22025  -0.15102  -0.46361
  14        4XZ         0.00057  -0.25470  -0.10933   0.61046   0.00379
  15        4YZ        -0.02136   0.09686  -0.25502  -0.02912   0.61786
  16 2   H  1S         -0.01678  -0.02257  -0.00652   0.02343  -0.00178
[...]
      X                                 X                                                                                            
      X                                 X                                                                                            
                                        X                                                                                            
                                        X                                                                                            
                                        X                                                                                            
                                        X                                                                                            
                                        X                                                                                            
                                        X                                                                                            
                                        X                                                                                            
                                        X                                                                                            
                                        X                                                                                            
                                        X                                                                                            
                                        X                                                                                            
                                        X                                                                                            
 
 ***** Axes restored to original set *****
 -------------------------------------------------------------------
 Center     Atomic                   Forces (Hartrees/Bohr)
 Number     Number              X              Y              Z
 -------------------------------------------------------------------
    1          6           0.011603577    0.000000575    0.000000009
    2          1          -0.000818975   -0.000038863    0.000296240
    3          1          -0.000819119    0.000275398   -0.000114352
    4          1          -0.000819043   -0.000237138   -0.000181852
    5          1          -0.007534630    0.000000215    0.000000015
    6          1          -0.001611811   -0.000000187   -0.000000060
 -------------------------------------------------------------------
 Cartesian Forces:  Max     0.011603577 RMS     0.003302285
 ------------------------------------------------------------------------
           Internal Coordinate Forces (Hartree/Bohr or radian)
 Cent Atom N1     Length/X     N2     Alpha/Y      N3      Beta/Z       J
 ------------------------------------------------------------------------
   1  C         0.011604(   1)      0.000001(   7)      0.000000(  13)
   2  H        -0.000819(   2)     -0.000039(   8)      0.000296(  14)
   3  H        -0.000819(   3)      0.000275(   9)     -0.000114(  15)
   4  H        -0.000819(   4)     -0.000237(  10)     -0.000182(  16)
   5  H        -0.007535(   5)      0.000000(  11)      0.000000(  17)
   6  H        -0.001612(   6)      0.000000(  12)      0.000000(  18)
 ------------------------------------------------------------------------
 Internal  Forces:  Max     0.011603577 RMS     0.003302285
 Force constants in Cartesian coordinates: 
                1             2             3             4             5
      1  0.786193D-01
      2 -0.411420D-05  0.626552D+00
      3 -0.205839D-05  0.000000D+00  0.626553D+00
      4 -0.374473D-01  0.107435D-01 -0.819459D-01  0.395447D-01
      5  0.858339D-02 -0.614346D-01  0.382153D-01 -0.966482D-02  0.547711D-01
      6 -0.654688D-01  0.382154D-01 -0.347918D+00  0.737182D-01 -0.413371D-01
      7 -0.374473D-01 -0.763382D-01  0.316686D-01  0.453212D-02  0.849813D-02
      8 -0.609885D-01 -0.309392D+00  0.104942D+00 -0.134804D-02  0.683804D-03
      9  0.253009D-01  0.104942D+00 -0.999589D-01  0.916320D-02  0.276789D-01
     10 -0.374491D-01  0.655985D-01  0.502793D-01  0.453224D-02 -0.726156D-02
     11  0.524089D-01 -0.243200D+00 -0.143158D+00 -0.105962D-02  0.647693D-02
     12  0.401699D-01 -0.143158D+00 -0.166151D+00  0.920139D-02 -0.243341D-01
     13  0.142868D+00  0.000000D+00  0.000000D+00 -0.153760D-01 -0.167261D-03
     14  0.000000D+00 -0.182180D-01  0.000000D+00  0.141191D-02 -0.226369D-03
     15  0.000000D+00  0.000000D+00 -0.182180D-01 -0.107694D-01 -0.105381D-03
     16 -0.109143D+00  0.000000D+00  0.000000D+00  0.421427D-02  0.121231D-04
     17  0.000000D+00  0.569283D-02  0.000000D+00 -0.829699D-04 -0.270876D-03
     18  0.000000D+00  0.000000D+00  0.569282D-02  0.632528D-03 -0.117631D-03
                6             7             8             9            10
      6  0.364656D+00
      7 -0.368288D-02  0.395446D-01
      8 -0.261996D-02  0.686734D-01  0.322984D+00
      9 -0.605965D-02 -0.284889D-01 -0.113514D+00  0.964424D-01
     10 -0.574911D-02  0.453221D-02 -0.743856D-02 -0.551812D-02  0.395462D-01
     11  0.596460D-02  0.860992D-02 -0.152245D-01 -0.184940D-01 -0.590125D-01
     12 -0.118529D-01 -0.341430D-02  0.118046D-01  0.984868D-02 -0.452313D-01
     13  0.127489D-02 -0.153759D-01  0.118760D-02 -0.492790D-03 -0.153757D-01
     14 -0.105304D-03 -0.100325D-01  0.456828D-03 -0.289223D-03  0.862056D-02
     15  0.563007D-03  0.416193D-02 -0.289157D-03 -0.120214D-03  0.660741D-02
     16 -0.922574D-04  0.421424D-02 -0.859259D-04  0.356750D-04  0.421414D-02
     17 -0.117635D-03  0.589213D-03  0.492408D-03 -0.323035D-03 -0.506420D-03
     18  0.610994D-03 -0.244459D-03 -0.323039D-03 -0.152286D-03 -0.388135D-03
               11            12            13            14            15
     11  0.251384D+00
     12  0.154852D+00  0.168041D+00
     13 -0.102067D-02 -0.782312D-03 -0.777158D-02
     14  0.274544D-03  0.394519D-03  0.000000D+00  0.326535D-01
     15  0.394529D-03  0.621908D-04  0.000000D+00  0.000000D+00  0.326535D-01
     16  0.738999D-04  0.566434D-04 -0.889684D-01  0.157310D-05  0.000000D+00
     17  0.288633D-03  0.440671D-03  0.000000D+00 -0.149405D-01  0.000000D+00
     18  0.440671D-03  0.514633D-04  0.000000D+00  0.000000D+00 -0.149405D-01
               16            17            18
     16  0.185469D+00
     17 -0.126343D-05  0.873750D-02
     18  0.000000D+00  0.000000D+00  0.873750D-02
 Force constants in internal coordinates: 
                1             2             3             4             5
      1  0.786193D-01
      2 -0.374473D-01  0.395447D-01
      3 -0.374473D-01  0.453212D-02  0.395446D-01
      4 -0.374491D-01  0.453224D-02  0.453221D-02  0.395462D-01
      5  0.142868D+00 -0.153760D-01 -0.153759D-01 -0.153757D-01 -0.777158D-02
      6 -0.109143D+00  0.421427D-02  0.421424D-02  0.421414D-02 -0.889684D-01
      7 -0.411420D-05  0.107435D-01 -0.763382D-01  0.655985D-01  0.000000D+00
      8  0.858339D-02 -0.966482D-02  0.849813D-02 -0.726156D-02 -0.167261D-03
      9 -0.609885D-01 -0.134804D-02  0.686734D-01 -0.743856D-02  0.118760D-02
     10  0.524089D-01 -0.105962D-02  0.860992D-02 -0.590125D-01 -0.102067D-02
     11  0.000000D+00  0.141191D-02 -0.100325D-01  0.862056D-02  0.000000D+00
     12  0.000000D+00 -0.829699D-04  0.589213D-03 -0.506420D-03  0.000000D+00
     13 -0.205839D-05 -0.819459D-01  0.316686D-01  0.502793D-01  0.000000D+00
     14 -0.654688D-01  0.737182D-01 -0.368288D-02 -0.574911D-02  0.127489D-02
     15  0.253009D-01  0.916320D-02 -0.284889D-01 -0.551812D-02 -0.492790D-03
     16  0.401699D-01  0.920139D-02 -0.341430D-02 -0.452313D-01 -0.782312D-03
     17  0.000000D+00 -0.107694D-01  0.416193D-02  0.660741D-02  0.000000D+00
     18  0.000000D+00  0.632528D-03 -0.244459D-03 -0.388135D-03  0.000000D+00
                6             7             8             9            10
      6  0.185469D+00
      7  0.000000D+00  0.626552D+00
      8  0.121231D-04 -0.614346D-01  0.547711D-01
      9 -0.859259D-04 -0.309392D+00  0.683804D-03  0.322984D+00
     10  0.738999D-04 -0.243200D+00  0.647693D-02 -0.152245D-01  0.251384D+00
     11  0.157310D-05 -0.182180D-01 -0.226369D-03  0.456828D-03  0.274544D-03
     12 -0.126343D-05  0.569283D-02 -0.270876D-03  0.492408D-03  0.288633D-03
     13  0.000000D+00  0.000000D+00  0.382153D-01  0.104942D+00 -0.143158D+00
     14 -0.922574D-04  0.382154D-01 -0.413371D-01 -0.261996D-02  0.596460D-02
     15  0.356750D-04  0.104942D+00  0.276789D-01 -0.113514D+00 -0.184940D-01
     16  0.566434D-04 -0.143158D+00 -0.243341D-01  0.118046D-01  0.154852D+00
     17  0.000000D+00  0.000000D+00 -0.105381D-03 -0.289157D-03  0.394529D-03
     18  0.000000D+00  0.000000D+00 -0.117631D-03 -0.323039D-03  0.440671D-03
               11            12            13            14            15
     11  0.326535D-01
     12 -0.149405D-01  0.873750D-02
     13  0.000000D+00  0.000000D+00  0.626553D+00
     14 -0.105304D-03 -0.117635D-03 -0.347918D+00  0.364656D+00
     15 -0.289223D-03 -0.323035D-03 -0.999589D-01 -0.605965D-02  0.964424D-01
     16  0.394519D-03  0.440671D-03 -0.166151D+00 -0.118529D-01  0.984868D-02
     17  0.000000D+00  0.000000D+00 -0.182180D-01  0.563007D-03 -0.120214D-03
     18  0.000000D+00  0.000000D+00  0.569282D-02  0.610994D-03 -0.152286D-03
               16            17            18
     16  0.168041D+00
     17  0.621908D-04  0.326535D-01
     18  0.514633D-04 -0.149405D-01  0.873750D-02
 Leave Link  716 at Wed Apr 17 22:12:59 2013, MaxMem=    6291456 cpu:       0.0
 (Enter /soft/g03/g03/l103.exe)

 GradGradGradGradGradGradGradGradGradGradGradGradGradGradGradGradGradGrad
 Berny optimization.
 Search for a local minimum.
 Step number   1 out of a maximum of   2
 All quantities printed in internal units (Hartrees-Bohrs-Radians)
 Second derivative matrix not updated -- analytic derivatives used.
 The second derivative matrix:
                          X1        Y1        Z1        X2        Y2
           X1           0.07862
           Y1           0.00000   0.62655
           Z1           0.00000   0.00000   0.62655
           X2          -0.03745   0.01074  -0.08195   0.03954
           Y2           0.00858  -0.06143   0.03822  -0.00966   0.05477
           Z2          -0.06547   0.03822  -0.34792   0.07372  -0.04134
           X3          -0.03745  -0.07634   0.03167   0.00453   0.00850
           Y3          -0.06099  -0.30939   0.10494  -0.00135   0.00068
           Z3           0.02530   0.10494  -0.09996   0.00916   0.02768
           X4          -0.03745   0.06560   0.05028   0.00453  -0.00726
           Y4           0.05241  -0.24320  -0.14316  -0.00106   0.00648
           Z4           0.04017  -0.14316  -0.16615   0.00920  -0.02433
           X5           0.14287   0.00000   0.00000  -0.01538  -0.00017
           Y5           0.00000  -0.01822   0.00000   0.00141  -0.00023
           Z5           0.00000   0.00000  -0.01822  -0.01077  -0.00011
           X6          -0.10914   0.00000   0.00000   0.00421   0.00001
           Y6           0.00000   0.00569   0.00000  -0.00008  -0.00027
           Z6           0.00000   0.00000   0.00569   0.00063  -0.00012
                          Z2        X3        Y3        Z3        X4
           Z2           0.36466
           X3          -0.00368   0.03954
           Y3          -0.00262   0.06867   0.32298
           Z3          -0.00606  -0.02849  -0.11351   0.09644
           X4          -0.00575   0.00453  -0.00744  -0.00552   0.03955
           Y4           0.00596   0.00861  -0.01522  -0.01849  -0.05901
           Z4          -0.01185  -0.00341   0.01180   0.00985  -0.04523
           X5           0.00127  -0.01538   0.00119  -0.00049  -0.01538
           Y5          -0.00011  -0.01003   0.00046  -0.00029   0.00862
           Z5           0.00056   0.00416  -0.00029  -0.00012   0.00661
           X6          -0.00009   0.00421  -0.00009   0.00004   0.00421
           Y6          -0.00012   0.00059   0.00049  -0.00032  -0.00051
           Z6           0.00061  -0.00024  -0.00032  -0.00015  -0.00039
                          Y4        Z4        X5        Y5        Z5
           Y4           0.25138
           Z4           0.15485   0.16804
           X5          -0.00102  -0.00078  -0.00777
           Y5           0.00027   0.00039   0.00000   0.03265
           Z5           0.00039   0.00006   0.00000   0.00000   0.03265
           X6           0.00007   0.00006  -0.08897   0.00000   0.00000
           Y6           0.00029   0.00044   0.00000  -0.01494   0.00000
           Z6           0.00044   0.00005   0.00000   0.00000  -0.01494
                          X6        Y6        Z6
           X6           0.18547
           Y6           0.00000   0.00874
           Z6           0.00000   0.00000   0.00874
     Eigenvalues ---   -0.11481   0.01234   0.01234   0.04907   0.04907
     Eigenvalues ---    0.05982   0.11303   0.11303   0.28259   0.43478
     Eigenvalues ---    0.84158   0.84158
 Eigenvalue   1 out of range, new value =    0.114806 Eigenvector:
                           1
           X1           0.47397
           Y1           0.00000
           Z1           0.00000
           X2          -0.06354
           Y2          -0.00974
           Z2           0.07428
           X3          -0.06354
           Y3           0.06920
           Z3          -0.02871
           X4          -0.06354
           Y4          -0.05946
           Z4          -0.04558
           X5          -0.85639
           Y5           0.00000
           Z5           0.00000
           X6          -0.11398
           Y6           0.00000
           Z6           0.00000
 Angle between quadratic step and forces=  25.13 degrees.
 Linear search not attempted -- first point.
 TrRot=  0.015387  0.000001  0.000000  0.000000  0.000000  0.000000
 Variable       Old X    -DE/DX   Delta X   Delta X   Delta X     New X
                                 (Linear)    (Quad)   (Total)
    X1        0.51582   0.01160   0.00000   0.06369   0.07908   0.59490
    Y1        0.00000   0.00000   0.00000   0.00000   0.00000   0.00000
    Z1        0.00000   0.00000   0.00000   0.00000   0.00000   0.00000
    X2        0.97768  -0.00082   0.00000  -0.02284  -0.00745   0.97023
    Y2       -0.25856  -0.00004   0.00000  -0.00148  -0.00148  -0.26004
    Z2        1.97217   0.00030   0.00000   0.01128   0.01128   1.98345
    X3        0.97768  -0.00082   0.00000  -0.02284  -0.00745   0.97023
    Y3        1.83723   0.00028   0.00000   0.01051   0.01051   1.84774
    Z3       -0.76216  -0.00011   0.00000  -0.00436  -0.00436  -0.76652
    X4        0.97770  -0.00082   0.00000  -0.02285  -0.00747   0.97024
    Y4       -1.57867  -0.00024   0.00000  -0.00903  -0.00903  -1.58770
    Z4       -1.21000  -0.00018   0.00000  -0.00692  -0.00692  -1.21692
    X5       -2.22778  -0.00753   0.00000  -0.08160  -0.06621  -2.29399
    Y5       -0.00001   0.00000   0.00000   0.00001   0.00001  -0.00001
    Z5       -0.00001   0.00000   0.00000   0.00000   0.00000   0.00000
    X6       -3.80018  -0.00161   0.00000  -0.00588   0.00951  -3.79067
    Y6        0.00000   0.00000   0.00000  -0.00001  -0.00001  -0.00001
    Z6        0.00000   0.00000   0.00000  -0.00001  -0.00001  -0.00001
         Item               Value     Threshold  Converged?
 Maximum Force            0.011604     0.000450     NO 
 RMS     Force            0.003302     0.000300     NO 
 Maximum Displacement     0.079080     0.001800     NO 
 RMS     Displacement     0.025037     0.001200     NO 
 Predicted change in Energy=-2.045385D-03
 GradGradGradGradGradGradGradGradGradGradGradGradGradGradGradGradGradGrad

 Leave Link  103 at Wed Apr 17 22:12:59 2013, MaxMem=    6291456 cpu:       0.0
 (Enter /soft/g03/g03/l9999.exe)

 Test job not archived.
 1\1\GINC-AN178\Freq\UMP2-FC\6-31G(d,p)\C1H5(2)\SCANNE04\17-Apr-2013\0\
 \#P MP2 6-31G** IOP(6/7=3) GFINPUT POP=FULL # FREQ\\job\\0,2\C,0.27295
 79091,0.0000000909,0.\H,0.5173669091,-0.1368219091,1.043628\H,0.517365
 9091,0.9722220909,-0.403319\H,0.5173789091,-0.8353939091,-0.640305\H,-
 1.1788890909,-0.0000069091,-0.000003\H,-2.0109700909,0.0000000909,-0.0
 00001\\Version=AM64L-G03RevC.02\State=2-A\HF=-40.6640033\MP2=-40.82801
 55\PUHF=-40.6703492\PMP2-0=-40.8323049\S2=0.781037\S2-1=0.76078\S2A=0.
 750363\RMSD=9.409e-09\RMSF=3.302e-03\Dipole=0.2924288,0.0000011,0.0000
 009\DipoleDeriv=-0.004197,-0.0000006,-0.0000008,-0.0000013,0.0608228,0
 .,-0.0000007,0.,0.0608224,0.0331673,0.0067188,-0.0512456,0.001445,0.04
 9778,0.0150908,-0.0110219,0.0150911,-0.0633521,0.0331671,-0.0477391,0.
 0198047,-0.0102677,-0.0481392,0.0414411,0.0042595,0.0414407,0.0345652,
 0.0331674,0.0410221,0.0314423,0.0088233,-0.0219992,-0.0565318,0.006762
 9,-0.0565316,0.0084268,0.1003551,-0.0000012,-0.0000005,-0.0000001,-0.0
 171763,0.,0.,0.,-0.0171762,-0.1956598,0.,-0.0000001,0.0000008,-0.02328
 62,0.,0.0000003,0.,-0.0232862\Polar=26.0342527,-0.0000595,12.4967886,-
 0.0000238,-0.0000037,12.4967775\PG=C01 [X(C1H5)]\NImag=1\\0.07861930,-
 0.00000411,0.62655180,-0.00000206,0.00000094,0.62655257,-0.03744729,0.
 01074354,-0.08194591,0.03954465,0.00858339,-0.06143456,0.03821532,-0.0
 0966482,0.05477107,-0.06546880,0.03821544,-0.34791770,0.07371816,-0.04
 133714,0.36465621,-0.03744732,-0.07633819,0.03166859,0.00453212,0.0084
 9813,-0.00368288,0.03954464,-0.06098850,-0.30939215,0.10494172,-0.0013
 4804,0.00068380,-0.00261996,0.06867343,0.32298365,0.02530092,0.1049415
 6,-0.09995891,0.00916320,0.02767889,-0.00605965,-0.02848888,-0.1135141
 5,0.09644238,-0.03744906,0.06559846,0.05027929,0.00453224,-0.00726156,
 -0.00574911,0.00453221,-0.00743856,-0.00551812,0.03954620,0.05240894,-
 0.24319993,-0.14315801,-0.00105962,0.00647693,0.00596460,0.00860992,-0
 .01522454,-0.01849404,-0.05901247,0.25138436,0.04016990,-0.14315797,-0
 .16615082,0.00920139,-0.02433406,-0.01185285,-0.00341430,0.01180459,0.
 00984868,-0.04523133,0.15485224,0.16804134,0.14286757,0.00000072,0.000
 00024,-0.01537599,-0.00016726,0.00127489,-0.01537588,0.00118760,-0.000
 49279,-0.01537573,-0.00102067,-0.00078231,-0.00777158,-0.00000055,-0.0
 1821799,0.00000002,0.00141191,-0.00022637,-0.00010530,-0.01003251,0.00
 045683,-0.00028922,0.00862056,0.00027454,0.00039452,-0.00000099,0.0326
 5348,-0.00000020,0.00000002,-0.01821796,-0.01076938,-0.00010538,0.0005
 6301,0.00416193,-0.00028916,-0.00012021,0.00660741,0.00039453,0.000062
 19,-0.00000020,0.,0.03265347,-0.10914320,-0.00000041,-0.00000016,0.004
 21427,0.00001212,-0.00009226,0.00421424,-0.00008593,0.00003567,0.00421
 414,0.00007390,0.00005664,-0.08896839,0.00000157,0.00000045,0.18546894
 ,0.00000083,0.00569283,0.00000001,-0.00008297,-0.00027088,-0.00011763,
 0.00058921,0.00049241,-0.00032304,-0.00050642,0.00028863,0.00044067,0.
 00000061,-0.01494050,-0.00000001,-0.00000126,0.00873750,0.00000024,0.0
 0000001,0.00569282,0.00063253,-0.00011763,0.00061099,-0.00024446,-0.00
 032304,-0.00015229,-0.00038813,0.00044067,0.00005146,0.00000017,-0.000
 00001,-0.01494049,-0.00000035,0.,0.00873750\\-0.01160358,-0.00000058,0
 .,0.00081897,0.00003886,-0.00029624,0.00081912,-0.00027540,0.00011435,
 0.00081904,0.00023714,0.00018185,0.00753463,-0.00000022,-0.00000001,0.
 00161181,0.00000019,0.00000006\\\@


 THE MOLECULE ALSO HAS A BODY.  WHEN THIS BODY IS HIT, THE MOLECULE
 FEELS HURT ALL OVER -- A. KITAIGORODSKI
 Job cpu time:  0 days  0 hours  0 minutes  9.7 seconds.
 File lengths (MBytes):  RWF=     54 Int=      0 D2E=      0 Chk=      6 Scr=      1
 Normal termination of Gaussian 03 at Wed Apr 17 22:12:59 2013.
total 36
drwx------  2 scanne04 2013007  4096 Apr 17 22:12 .
drwxrwxrwt 82 root     root    28672 Apr 17 22:12 ..
-rw-r--r--  1 scanne04 2013007   395 Apr 17 22:12 1.f_0.099.inp
/local/run/antares-adm.116012.0
