 Entering Gaussian System, Link 0=g03
 Initial command:
 /soft/g03/g03/l1.exe /local/run/antares-adm.116016.0/Gau-24735.inp -scrdir=/local/run/antares-adm.116016.0/
 Entering Link 1 = /soft/g03/g03/l1.exe PID=     24736.
  
 Copyright (c) 1988,1990,1992,1993,1995,1998,2003,2004, Gaussian, Inc.
                  All Rights Reserved.
  
 This is the Gaussian(R) 03 program.  It is based on the
 the Gaussian(R) 98 system (copyright 1998, Gaussian, Inc.),
 the Gaussian(R) 94 system (copyright 1995, Gaussian, Inc.),
 the Gaussian 92(TM) system (copyright 1992, Gaussian, Inc.),
 the Gaussian 90(TM) system (copyright 1990, Gaussian, Inc.),
 the Gaussian 88(TM) system (copyright 1988, Gaussian, Inc.),
 the Gaussian 86(TM) system (copyright 1986, Carnegie Mellon
 University), and the Gaussian 82(TM) system (copyright 1983,
 Carnegie Mellon University). Gaussian is a federally registered
 trademark of Gaussian, Inc.
  
 This software contains proprietary and confidential information,
 including trade secrets, belonging to Gaussian, Inc.
  
 This software is provided under written license and may be
 used, copied, transmitted, or stored only in accord with that
 written license.
  
 The following legend is applicable only to US Government
 contracts under FAR:
  
                    RESTRICTED RIGHTS LEGEND
  
 Use, reproduction and disclosure by the US Government is
 subject to restrictions as set forth in subparagraphs (a)
 and (c) of the Commercial Computer Software - Restricted
 Rights clause in FAR 52.227-19.
  
 Gaussian, Inc.
 340 Quinnipiac St., Bldg. 40, Wallingford CT 06492
  
  
 ---------------------------------------------------------------
 Warning -- This program may not be used in any manner that
 competes with the business of Gaussian, Inc. or will provide
 assistance to any competitor of Gaussian, Inc.  The licensee
 of this program is prohibited from giving any competitor of
 Gaussian, Inc. access to this program.  By using this program,
 the user acknowledges that Gaussian, Inc. is engaged in the
 business of creating and licensing software in the field of
 computational chemistry and represents and warrants to the
 licensee that it is not a competitor of Gaussian, Inc. and that
 it will not use this program in any manner prohibited above.
 ---------------------------------------------------------------
  

 Cite this work as:
 Gaussian 03, Revision C.02,
 M. J. Frisch, G. W. Trucks, H. B. Schlegel, G. E. Scuseria, 
 M. A. Robb, J. R. Cheeseman, J. A. Montgomery, Jr., T. Vreven, 
 K. N. Kudin, J. C. Burant, J. M. Millam, S. S. Iyengar, J. Tomasi, 
 V. Barone, B. Mennucci, M. Cossi, G. Scalmani, N. Rega, 
 G. A. Petersson, H. Nakatsuji, M. Hada, M. Ehara, K. Toyota, 
 R. Fukuda, J. Hasegawa, M. Ishida, T. Nakajima, Y. Honda, O. Kitao, 
 H. Nakai, M. Klene, X. Li, J. E. Knox, H. P. Hratchian, J. B. Cross, 
 C. Adamo, J. Jaramillo, R. Gomperts, R. E. Stratmann, O. Yazyev, 
 A. J. Austin, R. Cammi, C. Pomelli, J. W. Ochterski, P. Y. Ayala, 
 K. Morokuma, G. A. Voth, P. Salvador, J. J. Dannenberg, 
 V. G. Zakrzewski, S. Dapprich, A. D. Daniels, M. C. Strain, 
 O. Farkas, D. K. Malick, A. D. Rabuck, K. Raghavachari, 
 J. B. Foresman, J. V. Ortiz, Q. Cui, A. G. Baboul, S. Clifford, 
 J. Cioslowski, B. B. Stefanov, G. Liu, A. Liashenko, P. Piskorz, 
 I. Komaromi, R. L. Martin, D. J. Fox, T. Keith, M. A. Al-Laham, 
 C. Y. Peng, A. Nanayakkara, M. Challacombe, P. M. W. Gill, 
 B. Johnson, W. Chen, M. W. Wong, C. Gonzalez, and J. A. Pople, 
 Gaussian, Inc., Wallingford CT, 2004.
 
 ******************************************
 Gaussian 03:  AM64L-G03RevC.02 12-Jun-2004
                17-Apr-2013 
 ******************************************
 -------------------------------------------------
 #P MP2 6-31G** iop(6/7=3) gfinput pop=full # freq
 -------------------------------------------------
 1/10=4,30=1,38=1/1,3;
 2/17=6,18=5,40=1/2;
 3/5=1,6=6,7=101,11=9,16=1,24=10,25=1,30=1/1,2,3;
 4//1;
 5/5=2,38=5/2;
 8/6=3,8=1,10=2,19=11,30=-1/1;
 9/15=3,16=-3/6;
 11/6=1,8=1,15=11,17=12,24=-1,27=1,28=-2,29=300,32=6,42=3/1,2,10;
 10/6=2,21=1/2;
 8/6=4,8=1,10=2,19=11,30=-1/11,4;
 10/5=1,20=4/2;
 11/12=2,14=11,16=1,17=2,28=-2,42=3/2,10,12;
 6/7=3/1;
 7/8=1,10=1,12=2,25=1,44=2/1,2,3,16;
 1/10=4,30=1/3;
 99//99;
 Leave Link    1 at Wed Apr 17 22:15:48 2013, MaxMem=          0 cpu:       0.1
 (Enter /soft/g03/g03/l101.exe)
 ---
 job
 ---
 Symbolic Z-matrix:
 Charge =  0 Multiplicity = 2
 6                    -0.29274   0.        0. 
 1                    -0.51391  -0.45225   0.95463 
 1                    -0.51391  -0.60061  -0.86897 
 1                    -0.51392   1.05285  -0.08565 
 1                     1.25711   0.00001   0. 
 1                     2.04104   0.        0. 
 
                    Isotopes and Nuclear Properties:

  Atom         1           2           3           4           5           6
 IAtWgt=          12           1           1           1           1           1
 AtmWgt=  12.0000000   1.0078250   1.0078250   1.0078250   1.0078250   1.0078250
 IAtSpn=           0           1           1           1           1           1
 AtZEff=   0.0000000   0.0000000   0.0000000   0.0000000   0.0000000   0.0000000
 AtQMom=   0.0000000   0.0000000   0.0000000   0.0000000   0.0000000   0.0000000
 AtGFac=   0.0000000   2.7928460   2.7928460   2.7928460   2.7928460   2.7928460
 Leave Link  101 at Wed Apr 17 22:15:48 2013, MaxMem=    6291456 cpu:       0.0
 (Enter /soft/g03/g03/l103.exe)

 GradGradGradGradGradGradGradGradGradGradGradGradGradGradGradGradGradGrad
 Berny optimization.
 Initialization pass.
 Trust Radius=3.00D-01 FncErr=1.00D-07 GrdErr=1.00D-07
 Number of steps in this run=   2 maximum allowed number of steps=   2.
 GradGradGradGradGradGradGradGradGradGradGradGradGradGradGradGradGradGrad

 Leave Link  103 at Wed Apr 17 22:15:48 2013, MaxMem=    6291456 cpu:       0.0
 (Enter /soft/g03/g03/l202.exe)
                          Input orientation:                          
 ---------------------------------------------------------------------
 Center     Atomic     Atomic              Coordinates (Angstroms)
 Number     Number      Type              X           Y           Z
 ---------------------------------------------------------------------
    1          6             0       -0.292736    0.000000    0.000000
    2          1             0       -0.513909   -0.452252    0.954626
    3          1             0       -0.513907   -0.600607   -0.868973
    4          1             0       -0.513919    1.052854   -0.085653
    5          1             0        1.257114    0.000005    0.000001
    6          1             0        2.041038    0.000001    0.000000
 ---------------------------------------------------------------------
                    Distance matrix (angstroms):
                    1          2          3          4          5
     1  C    0.000000
     2  H    1.079241   0.000000
     3  H    1.079240   1.829624   0.000000
     4  H    1.079240   1.829624   1.829624   0.000000
     5  H    1.549850   2.062127   2.062127   2.062131   0.000000
     6  H    2.333774   2.764706   2.764704   2.764714   0.783924
                    6
     6  H    0.000000
 This structure is nearly, but not quite of a higher symmetry.
 Consider Symm=Loose if the higher symmetry is desired.
 Stoichiometry    CH5(2)
 Framework group  C1[X(CH5)]
 Deg. of freedom    12
 Full point group                 C1      NOp   1
 Largest Abelian subgroup         C1      NOp   1
 Largest concise Abelian subgroup C1      NOp   1
                         Standard orientation:                         
 ---------------------------------------------------------------------
 Center     Atomic     Atomic              Coordinates (Angstroms)
 Number     Number      Type              X           Y           Z
 ---------------------------------------------------------------------
    1          6             0        0.034478   -0.091597   -0.275891
    2          1             0       -0.682752   -0.896000   -0.333133
    3          1             0        1.073200   -0.384441   -0.283531
    4          1             0       -0.208863    0.798026   -0.836350
    5          1             0       -0.148063    0.393356    1.184772
    6          1             0       -0.240390    0.638644    1.923586
 ---------------------------------------------------------------------
 Rotational constants (GHZ):    149.7988293     55.3742247     55.3742178
 Leave Link  202 at Wed Apr 17 22:15:49 2013, MaxMem=    6291456 cpu:       0.0
 (Enter /soft/g03/g03/l301.exe)
 Standard basis: 6-31G(d,p) (6D, 7F)
 AO basis set in the form of general basis input:
  1 0
 S   6 1.00       0.000000000000
      0.3047524880D+04  0.1834737132D-02
      0.4573695180D+03  0.1403732281D-01
      0.1039486850D+03  0.6884262226D-01
      0.2921015530D+02  0.2321844432D+00
      0.9286662960D+01  0.4679413484D+00
      0.3163926960D+01  0.3623119853D+00
 SP   3 1.00       0.000000000000
      0.7868272350D+01 -0.1193324198D+00  0.6899906659D-01
      0.1881288540D+01 -0.1608541517D+00  0.3164239610D+00
      0.5442492580D+00  0.1143456438D+01  0.7443082909D+00
 SP   1 1.00       0.000000000000
      0.1687144782D+00  0.1000000000D+01  0.1000000000D+01
 D   1 1.00       0.000000000000
      0.8000000000D+00  0.1000000000D+01
 ****
  2 0
 S   3 1.00       0.000000000000
      0.1873113696D+02  0.3349460434D-01
      0.2825394365D+01  0.2347269535D+00
      0.6401216923D+00  0.8137573261D+00
 S   1 1.00       0.000000000000
      0.1612777588D+00  0.1000000000D+01
 P   1 1.00       0.000000000000
      0.1100000000D+01  0.1000000000D+01
 ****
  3 0
 S   3 1.00       0.000000000000
      0.1873113696D+02  0.3349460434D-01
      0.2825394365D+01  0.2347269535D+00
      0.6401216923D+00  0.8137573261D+00
 S   1 1.00       0.000000000000
      0.1612777588D+00  0.1000000000D+01
 P   1 1.00       0.000000000000
      0.1100000000D+01  0.1000000000D+01
 ****
  4 0
 S   3 1.00       0.000000000000
      0.1873113696D+02  0.3349460434D-01
      0.2825394365D+01  0.2347269535D+00
      0.6401216923D+00  0.8137573261D+00
 S   1 1.00       0.000000000000
      0.1612777588D+00  0.1000000000D+01
 P   1 1.00       0.000000000000
      0.1100000000D+01  0.1000000000D+01
 ****
  5 0
 S   3 1.00       0.000000000000
      0.1873113696D+02  0.3349460434D-01
      0.2825394365D+01  0.2347269535D+00
      0.6401216923D+00  0.8137573261D+00
 S   1 1.00       0.000000000000
      0.1612777588D+00  0.1000000000D+01
 P   1 1.00       0.000000000000
      0.1100000000D+01  0.1000000000D+01
 ****
  6 0
 S   3 1.00       0.000000000000
      0.1873113696D+02  0.3349460434D-01
      0.2825394365D+01  0.2347269535D+00
      0.6401216923D+00  0.8137573261D+00
 S   1 1.00       0.000000000000
      0.1612777588D+00  0.1000000000D+01
 P   1 1.00       0.000000000000
      0.1100000000D+01  0.1000000000D+01
 ****

 There are    40 symmetry adapted basis functions of A   symmetry.
 Integral buffers will be    131072 words long.
 Raffenetti 2 integral format.
 Two-electron integral symmetry is turned on.
    40 basis functions,    63 primitive gaussians,    40 cartesian basis functions
     6 alpha electrons        5 beta electrons
       nuclear repulsion energy        15.1217208032 Hartrees.
 IExCor=   0 DFT=F Ex=HF Corr=None ExCW=0 ScaHFX=  1.000000
 ScaDFX=  1.000000  1.000000  1.000000  1.000000
 IRadAn=      0 IRanWt=     -1 IRanGd=            0 ICorTp=0
 NAtoms=    6 NActive=    6 NUniq=    6 SFac= 1.00D+00 NAtFMM=   60 Big=F
 Leave Link  301 at Wed Apr 17 22:15:49 2013, MaxMem=    6291456 cpu:       0.0
 (Enter /soft/g03/g03/l302.exe)
 NPDir=0 NMtPBC=     1 NCelOv=     1 NCel=       1 NClECP=     1 NCelD=      1
         NCelK=      1 NCelE2=     1 NClLst=     1 CellRange=     0.0.
 One-electron integrals computed using PRISM.
 NBasis=    40 RedAO= T  NBF=    40
 NBsUse=    40 1.00D-06 NBFU=    40
 Leave Link  302 at Wed Apr 17 22:15:49 2013, MaxMem=    6291456 cpu:       0.1
 (Enter /soft/g03/g03/l303.exe)
 DipDrv:  MaxL=1.
 Leave Link  303 at Wed Apr 17 22:15:49 2013, MaxMem=    6291456 cpu:       0.0
 (Enter /soft/g03/g03/l401.exe)
 Harris functional with IExCor=  205 diagonalized for initial guess.
 ExpMin= 1.61D-01 ExpMax= 3.05D+03 ExpMxC= 4.57D+02 IAcc=1 IRadAn=         1 AccDes= 1.00D-06
 HarFok:  IExCor= 205 AccDes= 1.00D-06 IRadAn=         1 IDoV=1
 ScaDFX=  1.000000  1.000000  1.000000  1.000000
 Harris En= -40.8336452366366    
 Initial guess orbital symmetries:
 Alpha Orbitals:
       Occupied  (A) (A) (A) (A) (A) (A)
       Virtual   (A) (A) (A) (A) (A) (A) (A) (A) (A) (A) (A) (A)
                 (A) (A) (A) (A) (A) (A) (A) (A) (A) (A) (A) (A)
                 (A) (A) (A) (A) (A) (A) (A) (A) (A) (A)
 Beta  Orbitals:
       Occupied  (A) (A) (A) (A) (A)
       Virtual   (A) (A) (A) (A) (A) (A) (A) (A) (A) (A) (A) (A)
                 (A) (A) (A) (A) (A) (A) (A) (A) (A) (A) (A) (A)
                 (A) (A) (A) (A) (A) (A) (A) (A) (A) (A) (A)
 The electronic state of the initial guess is 2-A.
 <S**2> of initial guess= 0.7500
 Leave Link  401 at Wed Apr 17 22:15:49 2013, MaxMem=    6291456 cpu:       0.1
 (Enter /soft/g03/g03/l502.exe)
 UHF open shell SCF:
 Requested convergence on RMS density matrix=1.00D-08 within 128 cycles.
 Requested convergence on MAX density matrix=1.00D-06.
 Requested convergence on             energy=1.00D-06.
 No special actions if energy rises.
 Using DIIS extrapolation, IDIIS=  1040.
 Integral symmetry usage will be decided dynamically.
 Keep R1 and R2 integrals in memory in canonical form, NReq=     1550873.
 IEnd=     23199 IEndB=     23199 NGot=   6291456 MDV=   5613304
 LenX=   5613304
 Symmetry not used in FoFDir.
 MinBra= 0 MaxBra= 2 Meth= 1.
 IRaf=       0 NMat=   1 IRICut=       1 DoRegI=T DoRafI=F ISym2E= 0 JSym2E=0.

 Cycle   1  Pass 1  IDiag  1:
 E= -40.5545783513316    
 DIIS: error= 5.66D-02 at cycle   1 NSaved=   1.
 NSaved= 1 IEnMin= 1 EnMin= -40.5545783513316     IErMin= 1 ErrMin= 5.66D-02
 ErrMax= 5.66D-02 EMaxC= 1.00D-01 BMatC= 4.56D-01 BMatP= 4.56D-01
 IDIUse=3 WtCom= 4.34D-01 WtEn= 5.66D-01
 Coeff-Com:  0.100D+01
 Coeff-En:   0.100D+01
 Coeff:      0.100D+01
 Gap=     0.559 Goal=   None    Shift=    0.000
 Gap=     0.712 Goal=   None    Shift=    0.000
 GapD=    0.559 DampG=2.000 DampE=0.500 DampFc=1.0000 IDamp=-1.
 RMSDP=8.81D-03 MaxDP=1.37D-01              OVMax= 1.63D-01

 Cycle   2  Pass 1  IDiag  1:
 E= -40.6502083580639     Delta-E=       -0.095630006732 Rises=F Damp=F
 DIIS: error= 1.85D-02 at cycle   2 NSaved=   2.
 NSaved= 2 IEnMin= 2 EnMin= -40.6502083580639     IErMin= 2 ErrMin= 1.85D-02
 ErrMax= 1.85D-02 EMaxC= 1.00D-01 BMatC= 6.43D-02 BMatP= 4.56D-01
 IDIUse=3 WtCom= 8.15D-01 WtEn= 1.85D-01
 Coeff-Com:  0.222D+00 0.778D+00
 Coeff-En:   0.000D+00 0.100D+01
 Coeff:      0.181D+00 0.819D+00
 Gap=     0.611 Goal=   None    Shift=    0.000
 Gap=     0.687 Goal=   None    Shift=    0.000
 RMSDP=3.36D-03 MaxDP=5.68D-02 DE=-9.56D-02 OVMax= 5.59D-02

 Cycle   3  Pass 1  IDiag  1:
 E= -40.6666507468097     Delta-E=       -0.016442388746 Rises=F Damp=F
 DIIS: error= 6.51D-03 at cycle   3 NSaved=   3.
 NSaved= 3 IEnMin= 3 EnMin= -40.6666507468097     IErMin= 3 ErrMin= 6.51D-03
 ErrMax= 6.51D-03 EMaxC= 1.00D-01 BMatC= 2.50D-03 BMatP= 6.43D-02
 IDIUse=3 WtCom= 9.35D-01 WtEn= 6.51D-02
 Coeff-Com: -0.437D-01 0.140D-01 0.103D+01
 Coeff-En:   0.000D+00 0.000D+00 0.100D+01
 Coeff:     -0.408D-01 0.131D-01 0.103D+01
 Gap=     0.605 Goal=   None    Shift=    0.000
 Gap=     0.670 Goal=   None    Shift=    0.000
 RMSDP=8.54D-04 MaxDP=1.40D-02 DE=-1.64D-02 OVMax= 2.38D-02

 Cycle   4  Pass 1  IDiag  1:
 E= -40.6680491831195     Delta-E=       -0.001398436310 Rises=F Damp=F
 DIIS: error= 2.72D-03 at cycle   4 NSaved=   4.
 NSaved= 4 IEnMin= 4 EnMin= -40.6680491831195     IErMin= 4 ErrMin= 2.72D-03
 ErrMax= 2.72D-03 EMaxC= 1.00D-01 BMatC= 4.07D-04 BMatP= 2.50D-03
 IDIUse=3 WtCom= 9.73D-01 WtEn= 2.72D-02
 Coeff-Com:  0.208D-01-0.488D-01-0.768D+00 0.180D+01
 Coeff-En:   0.000D+00 0.000D+00 0.000D+00 0.100D+01
 Coeff:      0.203D-01-0.474D-01-0.747D+00 0.177D+01
 Gap=     0.611 Goal=   None    Shift=    0.000
 Gap=     0.681 Goal=   None    Shift=    0.000
 RMSDP=7.39D-04 MaxDP=9.35D-03 DE=-1.40D-03 OVMax= 1.64D-02

 Cycle   5  Pass 1  IDiag  1:
 E= -40.6684257155409     Delta-E=       -0.000376532421 Rises=F Damp=F
 DIIS: error= 4.30D-04 at cycle   5 NSaved=   5.
 NSaved= 5 IEnMin= 5 EnMin= -40.6684257155409     IErMin= 5 ErrMin= 4.30D-04
 ErrMax= 4.30D-04 EMaxC= 1.00D-01 BMatC= 2.62D-05 BMatP= 4.07D-04
 IDIUse=3 WtCom= 9.96D-01 WtEn= 4.30D-03
 Coeff-Com: -0.877D-02 0.283D-01 0.379D+00-0.102D+01 0.162D+01
 Coeff-En:   0.000D+00 0.000D+00 0.000D+00 0.000D+00 0.100D+01
 Coeff:     -0.873D-02 0.282D-01 0.377D+00-0.101D+01 0.162D+01
 Gap=     0.611 Goal=   None    Shift=    0.000
 Gap=     0.683 Goal=   None    Shift=    0.000
 RMSDP=1.57D-04 MaxDP=2.02D-03 DE=-3.77D-04 OVMax= 2.34D-03

 Cycle   6  Pass 1  IDiag  1:
 E= -40.6684499220275     Delta-E=       -0.000024206487 Rises=F Damp=F
 DIIS: error= 1.79D-04 at cycle   6 NSaved=   6.
 NSaved= 6 IEnMin= 6 EnMin= -40.6684499220275     IErMin= 6 ErrMin= 1.79D-04
 ErrMax= 1.79D-04 EMaxC= 1.00D-01 BMatC= 3.68D-06 BMatP= 2.62D-05
 IDIUse=3 WtCom= 9.98D-01 WtEn= 1.79D-03
 Coeff-Com:  0.119D-02-0.563D-02-0.659D-01 0.205D+00-0.679D+00 0.154D+01
 Coeff-En:   0.000D+00 0.000D+00 0.000D+00 0.000D+00 0.000D+00 0.100D+01
 Coeff:      0.119D-02-0.562D-02-0.658D-01 0.205D+00-0.678D+00 0.154D+01
 Gap=     0.611 Goal=   None    Shift=    0.000
 Gap=     0.683 Goal=   None    Shift=    0.000
 RMSDP=7.19D-05 MaxDP=6.75D-04 DE=-2.42D-05 OVMax= 9.85D-04

 Cycle   7  Pass 1  IDiag  1:
 E= -40.6684538148619     Delta-E=       -0.000003892834 Rises=F Damp=F
 DIIS: error= 5.61D-05 at cycle   7 NSaved=   7.
 NSaved= 7 IEnMin= 7 EnMin= -40.6684538148619     IErMin= 7 ErrMin= 5.61D-05
 ErrMax= 5.61D-05 EMaxC= 1.00D-01 BMatC= 4.89D-07 BMatP= 3.68D-06
 IDIUse=1 WtCom= 1.00D+00 WtEn= 0.00D+00
 Coeff-Com:  0.610D-03-0.134D-02-0.205D-01 0.466D-01 0.773D-01-0.745D+00
 Coeff-Com:  0.164D+01
 Coeff:      0.610D-03-0.134D-02-0.205D-01 0.466D-01 0.773D-01-0.745D+00
 Coeff:      0.164D+01
 Gap=     0.611 Goal=   None    Shift=    0.000
 Gap=     0.683 Goal=   None    Shift=    0.000
 RMSDP=3.31D-05 MaxDP=3.81D-04 DE=-3.89D-06 OVMax= 4.11D-04

 Cycle   8  Pass 1  IDiag  1:
 E= -40.6684543656074     Delta-E=       -0.000000550746 Rises=F Damp=F
 DIIS: error= 1.38D-05 at cycle   8 NSaved=   8.
 NSaved= 8 IEnMin= 8 EnMin= -40.6684543656074     IErMin= 8 ErrMin= 1.38D-05
 ErrMax= 1.38D-05 EMaxC= 1.00D-01 BMatC= 2.05D-08 BMatP= 4.89D-07
 IDIUse=1 WtCom= 1.00D+00 WtEn= 0.00D+00
 Coeff-Com: -0.276D-03 0.848D-03 0.115D-01-0.300D-01 0.280D-01 0.113D+00
 Coeff-Com: -0.519D+00 0.140D+01
 Coeff:     -0.276D-03 0.848D-03 0.115D-01-0.300D-01 0.280D-01 0.113D+00
 Coeff:     -0.519D+00 0.140D+01
 Gap=     0.611 Goal=   None    Shift=    0.000
 Gap=     0.683 Goal=   None    Shift=    0.000
 RMSDP=6.44D-06 MaxDP=1.33D-04 DE=-5.51D-07 OVMax= 1.01D-04

 Cycle   9  Pass 1  IDiag  1:
 E= -40.6684543856294     Delta-E=       -0.000000020022 Rises=F Damp=F
 DIIS: error= 3.52D-06 at cycle   9 NSaved=   9.
 NSaved= 9 IEnMin= 9 EnMin= -40.6684543856294     IErMin= 9 ErrMin= 3.52D-06
 ErrMax= 3.52D-06 EMaxC= 1.00D-01 BMatC= 1.05D-09 BMatP= 2.05D-08
 IDIUse=1 WtCom= 1.00D+00 WtEn= 0.00D+00
 Coeff-Com:  0.762D-04-0.233D-03-0.346D-02 0.900D-02-0.120D-01-0.166D-01
 Coeff-Com:  0.131D+00-0.503D+00 0.140D+01
 Coeff:      0.762D-04-0.233D-03-0.346D-02 0.900D-02-0.120D-01-0.166D-01
 Coeff:      0.131D+00-0.503D+00 0.140D+01
 Gap=     0.611 Goal=   None    Shift=    0.000
 Gap=     0.683 Goal=   None    Shift=    0.000
 RMSDP=1.66D-06 MaxDP=4.14D-05 DE=-2.00D-08 OVMax= 2.70D-05

 Cycle  10  Pass 1  IDiag  1:
 E= -40.6684543867215     Delta-E=       -0.000000001092 Rises=F Damp=F
 DIIS: error= 1.42D-06 at cycle  10 NSaved=  10.
 NSaved=10 IEnMin=10 EnMin= -40.6684543867215     IErMin=10 ErrMin= 1.42D-06
 ErrMax= 1.42D-06 EMaxC= 1.00D-01 BMatC= 1.78D-10 BMatP= 1.05D-09
 IDIUse=1 WtCom= 1.00D+00 WtEn= 0.00D+00
 Coeff-Com: -0.394D-04 0.125D-03 0.189D-02-0.476D-02 0.747D-02 0.270D-02
 Coeff-Com: -0.610D-01 0.291D+00-0.113D+01 0.189D+01
 Coeff:     -0.394D-04 0.125D-03 0.189D-02-0.476D-02 0.747D-02 0.270D-02
 Coeff:     -0.610D-01 0.291D+00-0.113D+01 0.189D+01
 Gap=     0.611 Goal=   None    Shift=    0.000
 Gap=     0.683 Goal=   None    Shift=    0.000
 RMSDP=9.50D-07 MaxDP=2.09D-05 DE=-1.09D-09 OVMax= 1.42D-05

 Cycle  11  Pass 1  IDiag  1:
 E= -40.6684543869455     Delta-E=       -0.000000000224 Rises=F Damp=F
 DIIS: error= 7.58D-07 at cycle  11 NSaved=  11.
 NSaved=11 IEnMin=11 EnMin= -40.6684543869455     IErMin=11 ErrMin= 7.58D-07
 ErrMax= 7.58D-07 EMaxC= 1.00D-01 BMatC= 1.58D-11 BMatP= 1.78D-10
 IDIUse=1 WtCom= 1.00D+00 WtEn= 0.00D+00
 Coeff-Com:  0.146D-04-0.481D-04-0.733D-03 0.174D-02-0.282D-02-0.914D-03
 Coeff-Com:  0.245D-01-0.128D+00 0.607D+00-0.129D+01 0.179D+01
 Coeff:      0.146D-04-0.481D-04-0.733D-03 0.174D-02-0.282D-02-0.914D-03
 Coeff:      0.245D-01-0.128D+00 0.607D+00-0.129D+01 0.179D+01
 Gap=     0.611 Goal=   None    Shift=    0.000
 Gap=     0.683 Goal=   None    Shift=    0.000
 RMSDP=2.20D-07 MaxDP=3.68D-06 DE=-2.24D-10 OVMax= 5.88D-06

 Cycle  12  Pass 1  IDiag  1:
 E= -40.6684543869668     Delta-E=       -0.000000000021 Rises=F Damp=F
 DIIS: error= 1.31D-07 at cycle  12 NSaved=  12.
 NSaved=12 IEnMin=12 EnMin= -40.6684543869668     IErMin=12 ErrMin= 1.31D-07
 ErrMax= 1.31D-07 EMaxC= 1.00D-01 BMatC= 1.16D-12 BMatP= 1.58D-11
 IDIUse=1 WtCom= 1.00D+00 WtEn= 0.00D+00
 Coeff-Com: -0.446D-05 0.149D-04 0.231D-03-0.502D-03 0.841D-03 0.248D-03
 Coeff-Com: -0.791D-02 0.429D-01-0.212D+00 0.484D+00-0.896D+00 0.159D+01
 Coeff:     -0.446D-05 0.149D-04 0.231D-03-0.502D-03 0.841D-03 0.248D-03
 Coeff:     -0.791D-02 0.429D-01-0.212D+00 0.484D+00-0.896D+00 0.159D+01
 Gap=     0.611 Goal=   None    Shift=    0.000
 Gap=     0.683 Goal=   None    Shift=    0.000
 RMSDP=4.97D-08 MaxDP=9.32D-07 DE=-2.13D-11 OVMax= 1.22D-06

 Cycle  13  Pass 1  IDiag  1:
 E= -40.6684543869681     Delta-E=       -0.000000000001 Rises=F Damp=F
 DIIS: error= 2.50D-08 at cycle  13 NSaved=  13.
 NSaved=13 IEnMin=13 EnMin= -40.6684543869681     IErMin=13 ErrMin= 2.50D-08
 ErrMax= 2.50D-08 EMaxC= 1.00D-01 BMatC= 5.49D-14 BMatP= 1.16D-12
 IDIUse=1 WtCom= 1.00D+00 WtEn= 0.00D+00
 Coeff-Com:  0.820D-06-0.297D-05-0.455D-04 0.836D-04-0.168D-03 0.851D-04
 Coeff-Com:  0.130D-02-0.867D-02 0.487D-01-0.121D+00 0.237D+00-0.595D+00
 Coeff-Com:  0.144D+01
 Coeff:      0.820D-06-0.297D-05-0.455D-04 0.836D-04-0.168D-03 0.851D-04
 Coeff:      0.130D-02-0.867D-02 0.487D-01-0.121D+00 0.237D+00-0.595D+00
 Coeff:      0.144D+01
 Gap=     0.611 Goal=   None    Shift=    0.000
 Gap=     0.683 Goal=   None    Shift=    0.000
 RMSDP=1.64D-08 MaxDP=2.33D-07 DE=-1.26D-12 OVMax= 3.05D-07

 Cycle  14  Pass 1  IDiag  1:
 E= -40.6684543869681     Delta-E=        0.000000000000 Rises=F Damp=F
 DIIS: error= 9.31D-09 at cycle  14 NSaved=  14.
 NSaved=14 IEnMin=14 EnMin= -40.6684543869681     IErMin=14 ErrMin= 9.31D-09
 ErrMax= 9.31D-09 EMaxC= 1.00D-01 BMatC= 4.44D-15 BMatP= 5.49D-14
 IDIUse=1 WtCom= 1.00D+00 WtEn= 0.00D+00
 Coeff-Com:  0.177D-07 0.126D-06 0.620D-06 0.850D-05-0.141D-05-0.503D-04
 Coeff-Com:  0.771D-04 0.271D-03-0.394D-02 0.153D-01-0.362D-01 0.170D+00
 Coeff-Com: -0.732D+00 0.159D+01
 Coeff:      0.177D-07 0.126D-06 0.620D-06 0.850D-05-0.141D-05-0.503D-04
 Coeff:      0.771D-04 0.271D-03-0.394D-02 0.153D-01-0.362D-01 0.170D+00
 Coeff:     -0.732D+00 0.159D+01
 Gap=     0.611 Goal=   None    Shift=    0.000
 Gap=     0.683 Goal=   None    Shift=    0.000
 RMSDP=3.96D-09 MaxDP=6.05D-08 DE=-1.42D-14 OVMax= 6.92D-08

 SCF Done:  E(UHF) =  -40.6684543870     A.U. after   14 cycles
             Convg  =    0.3960D-08             -V/T =  1.9981
             S**2   =   0.7735
 KE= 4.074433429899D+01 PE=-1.241879267894D+02 EE= 2.765341730026D+01
 Annihilation of the first spin contaminant:
 S**2 before annihilation     0.7735,   after     0.7503
 Leave Link  502 at Wed Apr 17 22:15:49 2013, MaxMem=    6291456 cpu:       0.1
 (Enter /soft/g03/g03/l801.exe)
 ExpMin= 1.61D-01 ExpMax= 3.05D+03 ExpMxC= 4.57D+02 IAcc=1 IRadAn=         1 AccDes= 1.00D-06
 HarFok:  IExCor= 205 AccDes= 1.00D-06 IRadAn=         1 IDoV=1
 ScaDFX=  1.000000  1.000000  1.000000  1.000000
 Largest valence mixing into a core orbital is  1.55D-04
 Largest core mixing into a valence orbital is  2.16D-05
 Largest valence mixing into a core orbital is  2.07D-04
 Largest core mixing into a valence orbital is  3.51D-05
 Range of M.O.s used for correlation:     2    40
 NBasis=    40 NAE=     6 NBE=     5 NFC=     1 NFV=     0
 NROrb=     39 NOA=     5 NOB=     4 NVA=    34 NVB=    35
 Leave Link  801 at Wed Apr 17 22:15:49 2013, MaxMem=    6291456 cpu:       0.0
 (Enter /soft/g03/g03/l906.exe)
 Frozen-core derivative calculation, NFC=   1 NFV=   0.
 FulOut=F Deriv=T AODrv=T NAtomX=     6
   MMem=           0  MDisk=           5 MDiskD=           5
  W3Min=       19200 MinDsk=      102260 NBas6D=          40
 NBas2D=         862    NTT=         820    LW2=     3000000
    MDV=     6280212 MDiskM=        2277 NBas2p=         862
 Disk-based method using ON**2 memory for  5 occupieds at a time.
 Permanent disk used for amplitudes=       50065 words.
 Estimated scratch disk usage=     1096240 words.
 IMap=   1   2   3   4   5   6
 Actual    scratch disk usage=     1096240 words.
 JobTyp=2 Pass  1:  I=   2 to   6 NPSUse=  1 ParTrn=F ParDer=F DoDerP=T.
 (rs|ai) integrals will be sorted in core.
 IMap=   1   2   3   4   5
 Actual    scratch disk usage=     1096240 words.
 JobTyp=3 Pass  1:  I=   2 to   5 NPSUse=  1 ParTrn=F ParDer=F DoDerP=T.
 (rs|ai) integrals will be sorted in core.
 Spin components of T(2) and E(2):
     alpha-alpha T2 =       0.6188328023D-02 E2=     -0.1901603074D-01
     alpha-beta  T2 =       0.4171200811D-01 E2=     -0.1344504398D+00
     beta-beta   T2 =       0.2898677281D-02 E2=     -0.8504938374D-02
 The integrals were generated   2 times.
 (S**2,0)=  0.77347D+00           (S**2,1)=  0.75795D+00
 E(PUHF)=      -0.40673457549D+02        E(PMP2)=      -0.40833787112D+02
 ANorm=    0.1025084881D+01
 E2 =    -0.1619714090D+00 EUMP2 =    -0.40830425795919D+02
 Leave Link  906 at Wed Apr 17 22:15:53 2013, MaxMem=    6291456 cpu:       4.1
 (Enter /soft/g03/g03/l1101.exe)
 Using compressed Sx but separate Hx and Fx, NAtomX=     6.
 Will process   7 centers per pass.
 Leave Link 1101 at Wed Apr 17 22:15:53 2013, MaxMem=    6291456 cpu:       0.1
 (Enter /soft/g03/g03/l1102.exe)
 Use density number 0.
 Leave Link 1102 at Wed Apr 17 22:15:53 2013, MaxMem=    6291456 cpu:       0.0
 (Enter /soft/g03/g03/l1110.exe)
 Forming Gx(P) for the SCF density, NAtomX=     6.
 Integral derivatives from FoFDir, PRISM(SPDF).
 Do as many integral derivatives as possible in FoFDir.
 G2DrvN: MDV=       6291406.
 G2DrvN: will do    7 centers at a time, making    1 passes doing MaxLOS=2.
 Symmetry not used in FoFDir.
 MinBra= 0 MaxBra= 2 Meth= 1.
 IRaf=       0 NMat=   1 IRICut=       1 DoRegI=T DoRafI=F ISym2E= 0 JSym2E=0.
 FoFDir/FoFCou used for L=0 through L=2.
 Leave Link 1110 at Wed Apr 17 22:15:53 2013, MaxMem=    6291456 cpu:       0.3
 (Enter /soft/g03/g03/l1002.exe)
 Minotr:  UHF wavefunction.
 DoAtom=TTTTTT
          Frozen-core window.
          Direct CPHF calculation.
          Solving linear equations simultaneously.
          Differentiating once with respect to electric field.
                with respect to dipole field.
          Differentiating once with respect to nuclear coordinates.
          Requested convergence is 1.0D-08 RMS, and 1.0D-07 maximum.
          Secondary convergence is 1.0D-12 RMS, and 1.0D-12 maximum.
          NewPWx=T KeepS1=T KeepF1=T KeepIn=T MapXYZ=F.
          MDV=       6291400 using IRadAn=       2.
          Store integrals in memory, NReq=     1493710.
 Symmetry not used in FoFDir.
 MinBra= 0 MaxBra= 2 Meth= 1.
 IRaf=       0 NMat=   1 IRICut=       1 DoRegI=T DoRafI=F ISym2E= 0 JSym2E=0.
          There are  21 degrees of freedom in the 1st order CPHF.
    18 vectors were produced by pass  0.
 AX will form  18 AO Fock derivatives at one time.
    18 vectors were produced by pass  1.
    18 vectors were produced by pass  2.
    18 vectors were produced by pass  3.
    18 vectors were produced by pass  4.
    18 vectors were produced by pass  5.
    10 vectors were produced by pass  6.
     3 vectors were produced by pass  7.
 Inv2:  IOpt= 1 Iter= 1 AM= 2.28D-15 Conv= 1.00D-12.
 Inverted reduced A of dimension  121 with in-core refinement.
 Saving first derivative matrices.
 End of Minotr Frequency-dependent properties file   721 does not exist.
 Leave Link 1002 at Wed Apr 17 22:15:54 2013, MaxMem=    6291456 cpu:       0.3
 (Enter /soft/g03/g03/l811.exe)
 MDV=     6291456.
 Form MO integral derivatives with frozen-active canonical formalism.
 MOERI=1 MOERIx=1 NAtoms=     6 NAtomA=     6 NAtomX=     6.
 Discarding MO integrals.
 MO basis two electron integral derivatives will not be stored on disk.
 IAlg= 3 DoFC=T DoPWx=T Debug=F.
 Frozen-core window:  NFC=   1 NFV=   0.
             Reordered first order wavefunction length =       207461
 In DefCFB: NBatch=  1, ICI=  6, ICA= 35, LFMax= 12
             Large arrays: LIAPS=     2425600, LIARS=     1764000 words.
  In StABat: MaxSiz= 15 MinSiz= 10 NAtomB=  3
 DoIAMN:  NPSUse=  1.
 In DefCFB: NBatch=  1, ICI=  6, ICA= 35, LFMax= 12
             Large arrays: LIAPS=     2425600, LIARS=     1764000 words.
  In StABat: MaxSiz= 15 MinSiz= 10 NAtomB=  3
 Leave Link  811 at Wed Apr 17 22:15:55 2013, MaxMem=    6291456 cpu:       1.8
 (Enter /soft/g03/g03/l804.exe)
 Frozen-core window:  NFC=   1 NFV=   0.
 Open-shell transformation, MDV=     6291456 ITran=4 ISComp=1.
 Compute canonical integrals, LenV=     5604917.
 Symmetry not used in FoFDir.
 MinBra= 0 MaxBra= 2 Meth= 1.
 IRaf=       0 NMat=   1 IRICut=       1 DoRegI=T DoRafI=F ISym2E= 0 JSym2E=0.
 Compute canonical integrals, LenV=     5604917.
 SymMOI:  orbitals are not symmetric.
 Spin components of T(2) and E(2):
     alpha-alpha T2 =       0.6188328023D-02 E2=     -0.1901603074D-01
     alpha-beta  T2 =       0.4171200811D-01 E2=     -0.1344504398D+00
     beta-beta   T2 =       0.2898677281D-02 E2=     -0.8504938374D-02
 ANorm=    0.1449688941D+01
 E2=       -0.1619714090D+00 EUMP2=       -0.40830425795919D+02
 (S**2,0)=  0.77347D+00           (S**2,1)=  0.75795D+00
 E(PUHF)=      -0.40673457549D+02        E(PMP2)=      -0.40833787112D+02
 Leave Link  804 at Wed Apr 17 22:15:56 2013, MaxMem=    6291456 cpu:       0.2
 (Enter /soft/g03/g03/l1002.exe)
 Minotr:  UHF wavefunction.
          Computing MP2 derivatives.
          Using Z-Vector for PSCF gradient.
          Skipping F1 and S1 gradient terms here.
 DoAtom=TTTTTT
          Frozen-core window.
          Using MO integrals in the linear equations.
          Forming densities via direct SCF.
          Solving linear equations simultaneously.
          Differentiating once with respect to electric field.
                with respect to dipole field.
          Differentiating once with respect to nuclear coordinates.
          Requested convergence is 1.0D-10 RMS, and 1.0D-09 maximum.
          Secondary convergence is 1.0D-12 RMS, and 1.0D-12 maximum.
          NewPWx=F KeepS1=T KeepF1=T KeepIn=T MapXYZ=F.
          MDV=       6291400 using IRadAn=       0.
          There are   1 degrees of freedom in the 1st order CPHF.
 Petite list used in FoFDir.
 MinBra= 0 MaxBra= 2 Meth= 1.
 IRaf=       0 NMat=   1 IRICut=       1 DoRegI=T DoRafI=F ISym2E= 1 JSym2E=1.
     1 vectors were produced by pass  0.
     1 vectors were produced by pass  1.
     1 vectors were produced by pass  2.
     1 vectors were produced by pass  3.
     1 vectors were produced by pass  4.
     1 vectors were produced by pass  5.
     1 vectors were produced by pass  6.
     1 vectors were produced by pass  7.
     1 vectors were produced by pass  8.
     1 vectors were produced by pass  9.
     1 vectors were produced by pass 10.
 Inv2:  IOpt= 1 Iter= 1 AM= 5.50D-16 Conv= 1.00D-12.
 Inverted reduced A of dimension   11 with in-core refinement.
 End of Minotr Frequency-dependent properties file   721 does not exist.
 Leave Link 1002 at Wed Apr 17 22:15:56 2013, MaxMem=    6291456 cpu:       0.2
 (Enter /soft/g03/g03/l1102.exe)
 Use density number 2.
 Symmetrizing basis deriv contribution to polar:
 IMax=3 JMax=2 DiffMx= 0.00D+00
 Leave Link 1102 at Wed Apr 17 22:15:56 2013, MaxMem=    6291456 cpu:       0.0
 (Enter /soft/g03/g03/l1110.exe)
 Forming Gx(P) for generalized density number  2 NAtomX=     6.
 Integral derivatives from FoFDir, PRISM(SPDF).
 Do as many integral derivatives as possible in FoFDir.
 G2DrvN: MDV=       6291406.
 G2DrvN: will do    7 centers at a time, making    1 passes doing MaxLOS=2.
 Symmetry not used in FoFDir.
 MinBra= 0 MaxBra= 2 Meth= 1.
 IRaf=       0 NMat=   1 IRICut=       1 DoRegI=T DoRafI=F ISym2E= 0 JSym2E=0.
 FoFDir/FoFCou used for L=0 through L=2.
 Leave Link 1110 at Wed Apr 17 22:15:56 2013, MaxMem=    6291456 cpu:       0.2
 (Enter /soft/g03/g03/l1112.exe)
 MP22nd: MDV=       6291456
 This link is doing NAtomX=     6 total of    21 degrees of freedom.
 Using ON3 I/O method in MakUI.
 Frozen-core window:  NFC=   1 NFV=   0.
 Using Ix for Sx.
 Use MO integrals over full window.
 Using OV2 memory method for fx*t*t/D, MaxI=  6 Force3=T.
 R2 and R3 integrals will be kept in memory, NReq=     1493220.
 Symmetry not used in FoFDir.
 MinBra= 0 MaxBra= 2 Meth= 1.
 IRaf=       0 NMat=   1 IRICut=       1 DoRegI=T DoRafI=F ISym2E= 0 JSym2E=0.
 DD1Dir will call FoFMem   1 times, MxPair=        86
 NAB=    30 NAA=    15 NBB=    10.
 Symmetry is being used.
 Discarding MO integrals.
 Leave Link 1112 at Wed Apr 17 22:15:57 2013, MaxMem=    6291456 cpu:       0.8
 (Enter /soft/g03/g03/l601.exe)
 Copying SCF densities to generalized density rwf, ISCF=1 IROHF=0.

 **********************************************************************

            Population analysis using the SCF density.

 **********************************************************************

 Orbital symmetries:
 Alpha Orbitals:
       Occupied  (A) (A) (A) (A) (A) (A)
       Virtual   (A) (A) (A) (A) (A) (A) (A) (A) (A) (A) (A) (A)
                 (A) (A) (A) (A) (A) (A) (A) (A) (A) (A) (A) (A)
                 (A) (A) (A) (A) (A) (A) (A) (A) (A) (A)
 Beta  Orbitals:
       Occupied  (A) (A) (A) (A) (A)
       Virtual   (A) (A) (A) (A) (A) (A) (A) (A) (A) (A) (A) (A)
                 (A) (A) (A) (A) (A) (A) (A) (A) (A) (A) (A) (A)
                 (A) (A) (A) (A) (A) (A) (A) (A) (A) (A) (A)
 The electronic state is 2-A.
 Alpha  occ. eigenvalues --  -11.23824  -0.96745  -0.62513  -0.57999  -0.57999
 Alpha  occ. eigenvalues --   -0.35824
 Alpha virt. eigenvalues --    0.25321   0.31879   0.31879   0.34459   0.71415
 Alpha virt. eigenvalues --    0.71415   0.75168   0.86894   1.14367   1.14367
 Alpha virt. eigenvalues --    1.17024   1.27904   1.40120   1.64600   1.64600
 Alpha virt. eigenvalues --    2.00037   2.00037   2.10123   2.29061   2.29061
 Alpha virt. eigenvalues --    2.31370   2.69782   2.69782   2.78131   2.93967
 Alpha virt. eigenvalues --    2.99432   2.99432   3.14007   3.14007   3.58083
 Alpha virt. eigenvalues --    3.81155   3.81155   4.43240   4.89761
  Beta  occ. eigenvalues --  -11.21458  -0.88601  -0.56457  -0.56457  -0.55799
  Beta virt. eigenvalues --    0.12511   0.26974   0.33102   0.33102   0.39151
  Beta virt. eigenvalues --    0.72187   0.72187   0.86150   0.91604   1.15597
  Beta virt. eigenvalues --    1.15597   1.19357   1.29248   1.43234   1.69999
  Beta virt. eigenvalues --    1.69999   2.01643   2.01643   2.16409   2.30059
  Beta virt. eigenvalues --    2.30059   2.30957   2.72092   2.72093   2.79320
  Beta virt. eigenvalues --    2.96600   3.00527   3.00527   3.14982   3.14982
  Beta virt. eigenvalues --    3.58883   3.82126   3.82126   4.45667   4.92294
     Alpha Molecular Orbital Coefficients
                           1         2         3         4         5
                        (A)--O    (A)--O    (A)--O    (A)--O    (A)--O
     EIGENVALUES --   -11.23824  -0.96745  -0.62513  -0.57999  -0.57999
   1 1   C  1S          0.99536  -0.20086   0.02596   0.00000   0.00000
   2        2S          0.03013   0.38755  -0.04251   0.00000   0.00000
   3        2PX        -0.00002  -0.00169  -0.02992  -0.26526   0.35924
   4        2PY         0.00005   0.00448   0.07950   0.33341   0.26694
   5        2PZ         0.00014   0.01349   0.23945  -0.14385  -0.04373
   6        3S         -0.01279   0.40241  -0.05944   0.00000   0.00000
   7        3PX         0.00009  -0.00049  -0.01632  -0.12850   0.17403
   8        3PY        -0.00023   0.00131   0.04336   0.16152   0.12932
   9        3PZ        -0.00070   0.00394   0.13059  -0.06968  -0.02119
  10        4XX        -0.00247  -0.00331  -0.00581  -0.02293   0.00453
  11        4YY        -0.00244  -0.00246  -0.00385   0.01638  -0.00716
  12        4ZZ        -0.00212   0.00545   0.01458   0.00655   0.00262
  13        4XY        -0.00002  -0.00043  -0.00099  -0.00214  -0.02557
  14        4XZ        -0.00005  -0.00128  -0.00299   0.00267   0.00201
  15        4YZ         0.00013   0.00341   0.00794  -0.01317  -0.00575
  16 2   H  1S         -0.00003   0.13781  -0.05434  -0.04004  -0.26992
  17        2S          0.00235   0.03382  -0.03832  -0.03109  -0.20956
  18        3PX        -0.00012   0.00916  -0.00343  -0.00549  -0.00777
  19        3PY        -0.00012   0.01002  -0.00169   0.00250  -0.01010
  20        3PZ         0.00003   0.00020   0.00434  -0.00196  -0.00062
  21 3   H  1S         -0.00003   0.13781  -0.05434  -0.21373   0.16964
  22        2S          0.00235   0.03382  -0.03832  -0.16594   0.13171
  23        3PX         0.00017  -0.01310   0.00357   0.01067  -0.00644
  24        3PY        -0.00003   0.00354   0.00035   0.00074   0.00664
  25        3PZ         0.00004  -0.00042   0.00454  -0.00129  -0.00113
  26 4   H  1S         -0.00003   0.13781  -0.05434   0.25378   0.10028
  27        2S          0.00235   0.03382  -0.03832   0.19703   0.07786
  28        3PX        -0.00005   0.00315  -0.00154   0.00050   0.00651
  29        3PY         0.00016  -0.01145   0.00506  -0.01039  -0.00226
  30        3PZ        -0.00005   0.00658   0.00234   0.00633   0.00268
  31 5   H  1S          0.00018   0.06346   0.26619   0.00000   0.00000
  32        2S          0.00347   0.02046   0.20157   0.00000   0.00000
  33        3PX        -0.00003   0.00094  -0.00081  -0.00195   0.00264
  34        3PY         0.00008  -0.00249   0.00216   0.00245   0.00196
  35        3PZ         0.00026  -0.00750   0.00650  -0.00106  -0.00032
  36 6   H  1S         -0.00040   0.03515   0.28617   0.00000   0.00000
  37        2S         -0.00152   0.01520   0.25696   0.00000   0.00000
  38        3PX        -0.00003   0.00051   0.00170  -0.00031   0.00042
  39        3PY         0.00009  -0.00135  -0.00453   0.00039   0.00032
  40        3PZ         0.00027  -0.00408  -0.01363  -0.00017  -0.00005
                           6         7         8         9        10
                        (A)--O    (A)--V    (A)--V    (A)--V    (A)--V
     EIGENVALUES --    -0.35824   0.25321   0.31879   0.31879   0.34459
   1 1   C  1S         -0.04267  -0.14337   0.00000   0.00000   0.04487
   2        2S          0.09197   0.11610   0.00000   0.00000  -0.05405
   3        2PX        -0.06181   0.01274   0.09150  -0.29276   0.01723
   4        2PY         0.16422  -0.03384   0.28322   0.07651  -0.04577
   5        2PZ         0.49461  -0.10192  -0.08260  -0.06199  -0.13787
   6        3S          0.26645   2.49614   0.00000   0.00000  -0.62720
   7        3PX        -0.05464   0.03960   0.45898  -1.46850   0.10435
   8        3PY         0.14516  -0.10521   1.42062   0.38377  -0.27721
   9        3PZ         0.43722  -0.31689  -0.41430  -0.31094  -0.83496
  10        4XX        -0.00729  -0.01600   0.00331   0.00821  -0.00907
  11        4YY        -0.00569  -0.01458   0.00032  -0.00575  -0.00480
  12        4ZZ         0.00940  -0.00126  -0.00363  -0.00246   0.03528
  13        4XY        -0.00081  -0.00072   0.00775  -0.00588  -0.00216
  14        4XZ        -0.00245  -0.00216  -0.00007  -0.00334  -0.00650
  15        4YZ         0.00650   0.00574   0.00711   0.00316   0.01727
  16 2   H  1S         -0.03557  -0.02479   0.05587  -0.02941  -0.05905
  17        2S         -0.06384  -1.18740   1.74650  -0.91936  -0.07297
  18        3PX        -0.00287  -0.00036   0.00229  -0.00820   0.00004
  19        3PY         0.00153  -0.00224   0.00719   0.00267  -0.00066
  20        3PZ         0.00991  -0.00397  -0.00354  -0.00115  -0.00151
  21 3   H  1S         -0.03557  -0.02479  -0.00246   0.06309  -0.05905
  22        2S         -0.06384  -1.18740  -0.07706   1.97219  -0.07297
  23        3PX         0.00108   0.00171   0.00258  -0.00744   0.00039
  24        3PY         0.00268  -0.00164   0.00813   0.00154  -0.00055
  25        3PZ         0.01002  -0.00392  -0.00231  -0.00307  -0.00150
  26 4   H  1S         -0.03557  -0.02479  -0.05340  -0.03368  -0.05905
  27        2S         -0.06384  -1.18740  -1.66944  -1.05283  -0.07298
  28        3PX        -0.00180   0.00020   0.00264  -0.00837   0.00014
  29        3PY         0.00533  -0.00025   0.00790   0.00206  -0.00032
  30        3PZ         0.00878  -0.00457  -0.00092  -0.00086  -0.00161
  31 5   H  1S         -0.06040   0.03773   0.00000   0.00000   0.24330
  32        2S         -0.07645  -0.24334  -0.00001   0.00000   2.71225
  33        3PX         0.00340  -0.00004   0.00102  -0.00327   0.00007
  34        3PY        -0.00904   0.00011   0.00316   0.00085  -0.00019
  35        3PZ        -0.02722   0.00035  -0.00092  -0.00069  -0.00058
  36 6   H  1S         -0.23486   0.03513   0.00000   0.00000   0.01667
  37        2S         -0.39103   0.14783   0.00001   0.00000  -2.17481
  38        3PX        -0.00030   0.00026   0.00124  -0.00396   0.00111
  39        3PY         0.00079  -0.00070   0.00383   0.00104  -0.00295
  40        3PZ         0.00237  -0.00211  -0.00112  -0.00084  -0.00889
                          11        12        13        14        15
                        (A)--V    (A)--V    (A)--V    (A)--V    (A)--V
     EIGENVALUES --     0.71415   0.71415   0.75168   0.86894   1.14367
   1 1   C  1S          0.00000   0.00000   0.02197   0.02284   0.00000
   2        2S          0.00000   0.00000   0.08969   0.14997   0.00000
   3        2PX        -0.69248  -0.15692   0.11250  -0.03275  -0.44618
   4        2PY         0.12409  -0.66767  -0.29888   0.08700  -0.63736
   5        2PZ        -0.12774   0.20206  -0.90022   0.26203   0.15585
   6        3S          0.00000   0.00000  -0.38523  -0.33717   0.00000
   7        3PX         1.46093   0.33107  -0.16282  -0.01083   0.72707
   8        3PY        -0.26180   1.40860   0.43255   0.02877   1.03861
   9        3PZ         0.26950  -0.42630   1.30283   0.08665  -0.25397
  10        4XX        -0.05613   0.03079   0.05172   0.06184  -0.02943
  11        4YY         0.04532  -0.01064   0.04047   0.05308  -0.02637
  12        4ZZ         0.01081  -0.02015  -0.06537  -0.02928   0.05579
  13        4XY         0.04291   0.05561   0.00570   0.00444  -0.25482
  14        4XZ         0.00824  -0.00709   0.01717   0.01336   0.01284
  15        4YZ        -0.01749   0.04052  -0.04560  -0.03549  -0.11818
  16 2   H  1S          0.26199   0.41361   0.22441   0.22014  -0.75901
  17        2S          0.14996   0.23675   0.09647   0.06777   1.57646
  18        3PX         0.02948   0.01540   0.00112  -0.01780   0.09265
  19        3PY         0.00301   0.03347  -0.00098  -0.01693   0.09291
  20        3PZ         0.00455  -0.00623  -0.00469   0.00508   0.02557
  21 3   H  1S         -0.48919   0.02008   0.22441   0.22014   0.25614
  22        2S         -0.28001   0.01149   0.09647   0.06777  -0.53201
  23        3PX         0.04035   0.00451  -0.00017   0.02382   0.02581
  24        3PY        -0.00890   0.02240  -0.00136  -0.00480  -0.07315
  25        3PZ         0.00450  -0.00673  -0.00473   0.00626   0.01238
  26 4   H  1S          0.22721  -0.43370   0.22441   0.22014   0.50287
  27        2S          0.13005  -0.24824   0.09647   0.06776  -1.04446
  28        3PX         0.02494   0.00157   0.00077  -0.00657  -0.06778
  29        3PY        -0.01109   0.03550  -0.00223   0.02322   0.05263
  30        3PZ         0.00842  -0.01469  -0.00432  -0.00684  -0.05566
  31 5   H  1S          0.00000   0.00000   0.02417   0.50363   0.00000
  32        2S          0.00000   0.00000  -0.47563  -0.74656   0.00000
  33        3PX         0.03380   0.00766  -0.00982  -0.00838  -0.00518
  34        3PY        -0.00606   0.03259   0.02609   0.02225  -0.00740
  35        3PZ         0.00624  -0.00986   0.07859   0.06703   0.00181
  36 6   H  1S          0.00000   0.00000   0.02066   0.87590   0.00000
  37        2S          0.00000   0.00000  -0.03840  -0.56441   0.00000
  38        3PX         0.02097   0.00475  -0.00017  -0.00022   0.00736
  39        3PY        -0.00376   0.02022   0.00046   0.00058   0.01052
  40        3PZ         0.00387  -0.00612   0.00140   0.00174  -0.00257
                          16        17        18        19        20
                        (A)--V    (A)--V    (A)--V    (A)--V    (A)--V
     EIGENVALUES --     1.14367   1.17024   1.27904   1.40120   1.64600
   1 1   C  1S          0.00000   0.05114   0.02867  -0.11072   0.00000
   2        2S         -0.00001  -1.23165   0.63839  -1.71660   0.00000
   3        2PX         0.64945  -0.03379  -0.02438   0.03272   0.03377
   4        2PY        -0.40214   0.08975   0.06476  -0.08694   0.00753
   5        2PZ         0.21468   0.27031   0.19505  -0.26184   0.00172
   6        3S          0.00002   2.51781  -1.75864   4.46624   0.00000
   7        3PX        -1.05830   0.06749   0.11113  -0.07867   0.00727
   8        3PY         0.65532  -0.17927  -0.29524   0.20900   0.00162
   9        3PZ        -0.34984  -0.53993  -0.88923   0.62950   0.00037
  10        4XX        -0.23980   0.06122   0.10496  -0.10740   0.00686
  11        4YY         0.17341   0.03943   0.07973  -0.10915  -0.06149
  12        4ZZ         0.06639  -0.16543  -0.15758  -0.12562   0.05463
  13        4XY         0.07300   0.01103   0.01278   0.00089  -0.03786
  14        4XZ         0.03943   0.03322   0.03849   0.00267   0.67779
  15        4YZ        -0.11821  -0.08827  -0.10225  -0.00710   0.16700
  16 2   H  1S          0.14245   0.52178   0.15405  -0.36277   0.03304
  17        2S         -0.29587  -1.03718  -0.03495  -0.70878  -0.01343
  18        3PX         0.03132  -0.06374  -0.00619  -0.00427  -0.00923
  19        3PY        -0.06236  -0.06541   0.01220   0.00805   0.01608
  20        3PZ         0.01620   0.00790   0.04045   0.02712  -0.27821
  21 3   H  1S         -0.72854   0.52178   0.15404  -0.36277  -0.03573
  22        2S          1.51318  -1.03720  -0.03495  -0.70878   0.01452
  23        3PX        -0.12677   0.08837  -0.00344  -0.00213  -0.00709
  24        3PY         0.01736  -0.02110   0.01300   0.00867   0.00272
  25        3PZ         0.02144   0.01220   0.04052   0.02718   0.29212
  26 4   H  1S          0.58611   0.52177   0.15405  -0.36276   0.00270
  27        2S         -1.21733  -1.03717  -0.03494  -0.70878  -0.00110
  28        3PX         0.02169  -0.02269  -0.00545  -0.00370  -0.16992
  29        3PY         0.09068   0.08133   0.01485   0.01011  -0.06033
  30        3PZ        -0.06202  -0.03569   0.03966   0.02651  -0.02339
  31 5   H  1S          0.00000  -0.03890  -1.10639  -0.24229   0.00000
  32        2S          0.00000   0.34332   3.52682  -1.49613   0.00001
  33        3PX         0.00754  -0.00056  -0.02643  -0.01856   0.18496
  34        3PY        -0.00467   0.00149   0.07023   0.04930   0.04125
  35        3PZ         0.00249   0.00447   0.21153   0.14849   0.00942
  36 6   H  1S          0.00000  -0.34759   0.39346   0.55963   0.00000
  37        2S          0.00000   0.12017  -2.03032   0.22163   0.00000
  38        3PX        -0.01072   0.00258  -0.02220  -0.01802   0.07013
  39        3PY         0.00664  -0.00684   0.05898   0.04787   0.01564
  40        3PZ        -0.00354  -0.02061   0.17765   0.14420   0.00357
                          21        22        23        24        25
                        (A)--V    (A)--V    (A)--V    (A)--V    (A)--V
     EIGENVALUES --     1.64600   2.00037   2.00037   2.10123   2.29061
   1 1   C  1S          0.00000   0.00000   0.00000   0.06314   0.00000
   2        2S          0.00000   0.00000  -0.00001   0.00409   0.00000
   3        2PX        -0.00656   0.09610  -0.02041   0.01036  -0.00353
   4        2PY         0.03203   0.02309   0.09108  -0.02753  -0.07977
   5        2PZ        -0.01145   0.00434  -0.03279  -0.08291   0.02605
   6        3S         -0.00001  -0.00001   0.00003  -0.70193   0.00000
   7        3PX        -0.00141  -0.17367   0.03688  -0.02984   0.02959
   8        3PY         0.00690  -0.04174  -0.16460   0.07929   0.66920
   9        3PZ        -0.00247  -0.00785   0.05927   0.23880  -0.21849
  10        4XX        -0.17735   0.06082  -0.05037  -0.24467  -0.31595
  11        4YY         0.49655  -0.04953  -0.04563  -0.15153   0.14580
  12        4ZZ        -0.31919  -0.01129   0.09599   0.72430   0.17015
  13        4XY        -0.26521  -0.09273  -0.00369  -0.04716  -0.36791
  14        4XZ        -0.06658  -0.13226   0.03045  -0.14205   0.06619
  15        4YZ         0.40649  -0.03389  -0.14582   0.37737  -0.33632
  16 2   H  1S          0.02219   0.06929   0.04481   0.30483   0.41067
  17        2S         -0.00902  -0.12600  -0.08149   0.04455   0.06557
  18        3PX         0.14659  -0.08986   0.00703  -0.03751   0.00755
  19        3PY        -0.13012   0.03294  -0.03878  -0.10567  -0.29070
  20        3PZ        -0.12098   0.13855   0.11770  -0.13903   0.20759
  21 3   H  1S          0.01752  -0.07345   0.03760   0.30483   0.12279
  22        2S         -0.00712   0.13357  -0.06838   0.04455   0.01960
  23        3PX        -0.04873  -0.05142   0.00361   0.09553  -0.03402
  24        3PY        -0.18797  -0.06968  -0.04553  -0.06691  -0.34549
  25        3PZ        -0.08775  -0.15366   0.10278  -0.13527   0.14339
  26 4   H  1S         -0.03970   0.00417  -0.08242   0.30483  -0.53346
  27        2S          0.01614  -0.00757   0.14986   0.04455  -0.08517
  28        3PX        -0.06167  -0.07682   0.03568  -0.00160  -0.01674
  29        3PY         0.14144  -0.01567  -0.12240   0.02268  -0.34090
  30        3PZ         0.27190   0.00526  -0.14605  -0.17715  -0.03197
  31 5   H  1S          0.00000   0.00000   0.00001  -0.27554   0.00000
  32        2S          0.00000   0.00001  -0.00003   0.34216   0.00000
  33        3PX        -0.03593   0.53709  -0.11405   0.03267  -0.00396
  34        3PY         0.17543   0.12907   0.50904  -0.08681  -0.08951
  35        3PZ        -0.06273   0.02426  -0.18325  -0.26147   0.02922
  36 6   H  1S          0.00000   0.00000   0.00000   0.41335   0.00000
  37        2S          0.00001  -0.00001   0.00001  -0.40129   0.00000
  38        3PX        -0.01362   0.59625  -0.12662  -0.02523  -0.00979
  39        3PY         0.06651   0.14329   0.56512   0.06702  -0.22144
  40        3PZ        -0.02379   0.02694  -0.20344   0.20187   0.07229
                          26        27        28        29        30
                        (A)--V    (A)--V    (A)--V    (A)--V    (A)--V
     EIGENVALUES --     2.29061   2.31370   2.69782   2.69782   2.78131
   1 1   C  1S          0.00000   0.00000   0.00000   0.00000   0.00825
   2        2S          0.00000   0.00000   0.00000   0.00000   0.19236
   3        2PX        -0.08333   0.00000  -0.00473  -0.15403   0.01174
   4        2PY         0.00026   0.00000  -0.14738  -0.00123  -0.03120
   5        2PZ        -0.01050   0.00000   0.04834  -0.01884  -0.09397
   6        3S          0.00000   0.00000   0.00000   0.00000  -0.26837
   7        3PX         0.69906   0.00001  -0.00211  -0.06877   0.05952
   8        3PY        -0.00216   0.00000  -0.06581  -0.00055  -0.15813
   9        3PZ         0.08808   0.00000   0.02158  -0.00841  -0.47627
  10        4XX         0.38885   0.00000  -0.12237   0.23705  -0.18460
  11        4YY        -0.33401   0.00000  -0.16216  -0.13150  -0.13133
  12        4ZZ        -0.05484   0.00000   0.28453  -0.10555   0.36966
  13        4XY        -0.40843   0.00000  -0.09785  -0.29370  -0.02698
  14        4XZ        -0.05318   0.00000  -0.00197  -0.41516  -0.08125
  15        4YZ         0.07776   0.00000  -0.47334   0.00933   0.21586
  16 2   H  1S          0.37889   0.00000   0.12395   0.11704   0.08061
  17        2S          0.06049   0.00000  -0.15925  -0.15038  -0.07024
  18        3PX        -0.35281  -0.40672  -0.10505   0.13587  -0.21278
  19        3PY         0.06363   0.37512  -0.07763  -0.29011   0.03436
  20        3PZ         0.03639  -0.17537  -0.47664  -0.34874   0.56697
  21 3   H  1S         -0.54510   0.00000   0.03939  -0.16586   0.08061
  22        2S         -0.08703   0.00000  -0.05061   0.21311  -0.07024
  23        3PX        -0.29375  -0.15034   0.09692  -0.13469   0.13126
  24        3PY        -0.05618  -0.53741   0.16985   0.26219   0.13459
  25        3PZ        -0.16424   0.15964  -0.19977   0.55087   0.57669
  26 4   H  1S          0.16621   0.00000  -0.16333   0.04882   0.08061
  27        2S          0.02654   0.00000   0.20986  -0.06273  -0.07024
  28        3PX        -0.37413   0.55705   0.01553   0.23968  -0.11993
  29        3PY        -0.00430   0.16229   0.13825   0.02986   0.36627
  30        3PZ        -0.00076   0.01574   0.60083  -0.17268   0.46837
  31 5   H  1S          0.00000   0.00000   0.00000   0.00000  -0.07008
  32        2S          0.00000   0.00000   0.00001   0.00000   0.41033
  33        3PX        -0.09351   0.00000  -0.00975  -0.31728  -0.00108
  34        3PY         0.00029   0.00000  -0.30359  -0.00254   0.00288
  35        3PZ        -0.01178   0.00000   0.09957  -0.03881   0.00867
  36 6   H  1S          0.00000   0.00000   0.00000   0.00000  -0.04610
  37        2S          0.00000   0.00000   0.00000   0.00000  -0.07965
  38        3PX        -0.23132   0.00000   0.01285   0.41829   0.01693
  39        3PY         0.00071   0.00000   0.40024   0.00335  -0.04498
  40        3PZ        -0.02914   0.00000  -0.13128   0.05116  -0.13549
                          31        32        33        34        35
                        (A)--V    (A)--V    (A)--V    (A)--V    (A)--V
     EIGENVALUES --     2.93967   2.99432   2.99432   3.14007   3.14007
   1 1   C  1S         -0.05600   0.00000   0.00000   0.00000   0.00000
   2        2S         -0.17210   0.00000  -0.00001   0.00000   0.00000
   3        2PX        -0.00002  -0.01621   0.00439  -0.23819   0.00536
   4        2PY         0.00005  -0.00481  -0.01533  -0.01403  -0.22744
   5        2PZ         0.00017  -0.00043   0.00564  -0.02511   0.07618
   6        3S          1.16614  -0.00002   0.00007   0.00000  -0.00001
   7        3PX        -0.06550  -0.42090   0.11411  -0.41189   0.00927
   8        3PY         0.17400  -0.12479  -0.39798  -0.02426  -0.39330
   9        3PZ         0.52403  -0.01118   0.14643  -0.04342   0.13174
  10        4XX        -0.16453   0.11332  -0.11776   0.17819  -0.30257
  11        4YY        -0.12494  -0.10382  -0.04916  -0.26725   0.53616
  12        4ZZ         0.24737  -0.00950   0.16692   0.08907  -0.23360
  13        4XY        -0.02005  -0.18617  -0.01542  -0.15952  -0.39530
  14        4XZ        -0.06039  -0.20908   0.06600   0.64978   0.07473
  15        4YZ         0.16043  -0.06863  -0.25469   0.11616   0.29037
  16 2   H  1S         -0.02741   0.00959   0.00547  -0.01274  -0.01212
  17        2S         -0.18353  -0.26661  -0.15216  -0.28133  -0.26783
  18        3PX        -0.05561   0.12347  -0.17276   0.13815  -0.55311
  19        3PY        -0.14506  -0.17410   0.12496  -0.41242   0.23882
  20        3PZ        -0.18128  -0.16422  -0.19860   0.41231   0.09731
  21 3   H  1S         -0.02741  -0.00954   0.00557   0.01687  -0.00497
  22        2S         -0.18353   0.26507  -0.15483   0.37261  -0.10973
  23        3PX         0.13411   0.00289   0.08874  -0.22624   0.25769
  24        3PY        -0.08978   0.21267   0.19902   0.15405   0.63765
  25        3PZ        -0.17591   0.16584  -0.19289  -0.42128  -0.07883
  26 4   H  1S         -0.02741  -0.00006  -0.01105  -0.00413   0.01709
  27        2S         -0.18355   0.00155   0.30696  -0.09128   0.37756
  28        3PX        -0.00440   0.28918  -0.02864   0.63024   0.28321
  29        3PY         0.03798   0.08464   0.06893   0.29030  -0.35880
  30        3PZ        -0.23567   0.00942   0.24692   0.06613  -0.19188
  31 5   H  1S         -0.46912   0.00001  -0.00002   0.00000   0.00000
  32        2S         -0.95561   0.00001  -0.00005   0.00000   0.00000
  33        3PX        -0.05675   0.78099  -0.21175  -0.10082   0.00227
  34        3PY         0.15078   0.23155   0.73849  -0.00594  -0.09626
  35        3PZ         0.45425   0.02072  -0.27162  -0.01063   0.03224
  36 6   H  1S         -0.11892   0.00000   0.00000   0.00000   0.00000
  37        2S          0.67047  -0.00001   0.00004   0.00000   0.00000
  38        3PX         0.08368  -0.65953   0.17882   0.09958  -0.00224
  39        3PY        -0.22233  -0.19554  -0.62365   0.00586   0.09508
  40        3PZ        -0.66975  -0.01749   0.22936   0.01050  -0.03184
                          36        37        38        39        40
                        (A)--V    (A)--V    (A)--V    (A)--V    (A)--V
     EIGENVALUES --     3.58083   3.81155   3.81155   4.43240   4.89761
   1 1   C  1S         -0.13547   0.00000   0.00000  -0.19247  -0.43777
   2        2S          1.07152   0.00000   0.00000   1.00511   2.57211
   3        2PX         0.02877   0.06735   0.97643  -0.02002  -0.00372
   4        2PY        -0.07644   0.93570  -0.02788   0.05320   0.00990
   5        2PZ        -0.23024  -0.30225   0.13128   0.16022   0.02980
   6        3S          0.93675   0.00000   0.00000   0.79679   2.01666
   7        3PX         0.02171   0.03132   0.45402  -0.02263  -0.02092
   8        3PY        -0.05767   0.43508  -0.01296   0.06011   0.05557
   9        3PZ        -0.17370  -0.14054   0.06104   0.18104   0.16737
  10        4XX         0.16781  -0.63894   0.80767  -1.06132  -1.91660
  11        4YY         0.08540   0.33888  -0.70636  -0.99828  -1.89715
  12        4ZZ        -0.68962   0.30006  -0.10131  -0.40550  -1.71424
  13        4XY         0.04173  -0.79940  -0.79912  -0.03192  -0.00985
  14        4XZ         0.12570   0.14552  -0.01957  -0.09614  -0.02967
  15        4YZ        -0.33393  -0.61452   0.18240   0.25541   0.07881
  16 2   H  1S         -0.36972   0.62163   0.54368   0.24019   0.24206
  17        2S         -0.35379   0.32827   0.28711  -0.11552  -0.34797
  18        3PX        -0.48850   0.48153   0.58497   0.18488   0.18839
  19        3PY        -0.55856   0.71038   0.47021   0.20170   0.20836
  20        3PZ        -0.06184   0.01932   0.08754   0.00269   0.00876
  21 3   H  1S         -0.36972   0.16003  -0.81019   0.24019   0.24206
  22        2S         -0.35379   0.08451  -0.42785  -0.11552  -0.34798
  23        3PX         0.71439  -0.16581   1.07469  -0.26409  -0.27094
  24        3PY        -0.20812   0.21991  -0.27253   0.07091   0.07454
  25        3PZ        -0.02786  -0.04354  -0.02936  -0.00999  -0.00422
  26 4   H  1S         -0.36972  -0.78166   0.26651   0.24019   0.24206
  27        2S         -0.35379  -0.41278   0.14074  -0.11552  -0.34797
  28        3PX        -0.16387  -0.18459   0.24138   0.06371   0.06443
  29        3PY         0.60191   0.89145  -0.25195  -0.23143  -0.23478
  30        3PZ        -0.40656  -0.56424   0.19742   0.13135   0.14039
  31 5   H  1S          0.25547   0.00000   0.00000   0.97384  -0.50434
  32        2S          0.16906   0.00000   0.00000  -0.29882  -0.68515
  33        3PX        -0.01593  -0.00517  -0.07498  -0.16097   0.08206
  34        3PY         0.04231  -0.07185   0.00214   0.42766  -0.21802
  35        3PZ         0.12746   0.02321  -0.01008   1.28813  -0.65669
  36 6   H  1S         -0.17290   0.00000   0.00000  -1.01683   0.57706
  37        2S         -0.13371   0.00000   0.00000   0.05620   0.31958
  38        3PX        -0.04021   0.00175   0.02540  -0.14328   0.07532
  39        3PY         0.10682   0.02434  -0.00072   0.38067  -0.20011
  40        3PZ         0.32174  -0.00786   0.00342   1.14658  -0.60273
     Beta Molecular Orbital Coefficients.
                           1         2         3         4         5
                        (A)--O    (A)--O    (A)--O    (A)--O    (A)--O
     EIGENVALUES --   -11.21458  -0.88601  -0.56457  -0.56457  -0.55799
   1 1   C  1S          0.99617  -0.18731   0.00000   0.00000   0.03158
   2        2S          0.02575   0.34756   0.00000   0.00000  -0.06330
   3        2PX         0.00003   0.00660  -0.25045   0.33315  -0.01319
   4        2PY        -0.00008  -0.01754   0.30903   0.25181   0.03505
   5        2PZ        -0.00025  -0.05282  -0.13391  -0.04197   0.10550
   6        3S         -0.01321   0.32149   0.00001   0.00000  -0.11719
   7        3PX         0.00010  -0.00035  -0.11357   0.15107  -0.00296
   8        3PY        -0.00027   0.00093   0.14014   0.11419   0.00786
   9        3PZ        -0.00080   0.00280  -0.06072  -0.01903   0.02365
  10        4XX        -0.00059   0.01033  -0.02395   0.00544  -0.00507
  11        4YY        -0.00074   0.00747   0.01394  -0.00921  -0.00328
  12        4ZZ        -0.00219  -0.01944   0.01001   0.00378   0.01357
  13        4XY         0.00008   0.00145  -0.00013  -0.02696  -0.00091
  14        4XZ         0.00023   0.00437   0.00614  -0.00296  -0.00273
  15        4YZ        -0.00062  -0.01160  -0.01714  -0.00944   0.00726
  16 2   H  1S         -0.00017   0.16081  -0.04023  -0.28820  -0.05060
  17        2S          0.00238   0.07044  -0.03444  -0.24672  -0.03894
  18        3PX        -0.00020   0.00897  -0.00572  -0.00697  -0.00277
  19        3PY        -0.00021   0.00995   0.00294  -0.01032  -0.00189
  20        3PZ         0.00001   0.00050  -0.00244  -0.00285   0.00238
  21 3   H  1S         -0.00017   0.16081  -0.22947   0.17894  -0.05060
  22        2S          0.00238   0.07044  -0.19645   0.15319  -0.03894
  23        3PX         0.00028  -0.01292   0.01046  -0.00595   0.00322
  24        3PY        -0.00007   0.00358   0.00058   0.00742  -0.00014
  25        3PZ         0.00003  -0.00012  -0.00319   0.00015   0.00255
  26 4   H  1S         -0.00017   0.16081   0.26970   0.10926  -0.05058
  27        2S          0.00238   0.07044   0.23089   0.09354  -0.03891
  28        3PX        -0.00007   0.00306  -0.00019   0.00687  -0.00115
  29        3PY         0.00025  -0.01116  -0.00913  -0.00167   0.00388
  30        3PZ        -0.00012   0.00677   0.00807   0.00347   0.00066
  31 5   H  1S          0.00018   0.06815  -0.00002  -0.00001   0.33012
  32        2S          0.00371   0.01680  -0.00002  -0.00001   0.41704
  33        3PX        -0.00002   0.00026  -0.00172   0.00229  -0.00104
  34        3PY         0.00005  -0.00069   0.00213   0.00173   0.00278
  35        3PZ         0.00014  -0.00209  -0.00092  -0.00029   0.00836
  36 6   H  1S         -0.00029   0.03740  -0.00001   0.00000   0.25701
  37        2S         -0.00159   0.02815  -0.00001   0.00000   0.16110
  38        3PX        -0.00003   0.00056  -0.00049   0.00066   0.00237
  39        3PY         0.00007  -0.00149   0.00061   0.00050  -0.00630
  40        3PZ         0.00021  -0.00450  -0.00026  -0.00008  -0.01899
                           6         7         8         9        10
                        (A)--V    (A)--V    (A)--V    (A)--V    (A)--V
     EIGENVALUES --     0.12511   0.26974   0.33102   0.33102   0.39151
   1 1   C  1S          0.05128  -0.14949   0.00000   0.00000   0.04365
   2        2S         -0.06714   0.10200   0.00000   0.00000  -0.02465
   3        2PX         0.04063   0.01416  -0.06735  -0.29416   0.01654
   4        2PY        -0.10793  -0.03762  -0.28365   0.05338  -0.04395
   5        2PZ        -0.32508  -0.11332   0.08576  -0.05448  -0.13236
   6        3S         -0.35701   2.57690   0.00000   0.00000  -0.61882
   7        3PX         0.06353   0.03834  -0.35191  -1.53695   0.12936
   8        3PY        -0.16879  -0.10186  -1.48203   0.27889  -0.34368
   9        3PZ        -0.50837  -0.30680   0.44808  -0.28467  -1.03514
  10        4XX        -0.00334  -0.00676  -0.00305   0.00293  -0.00888
  11        4YY        -0.00252  -0.00794   0.00568  -0.00477  -0.00530
  12        4ZZ         0.00516  -0.01911  -0.00263   0.00184   0.02836
  13        4XY        -0.00041   0.00060  -0.00514  -0.00060  -0.00181
  14        4XZ        -0.00125   0.00181   0.00289   0.00771  -0.00546
  15        4YZ         0.00331  -0.00481   0.00401   0.00047   0.01450
  16 2   H  1S          0.02095  -0.00578  -0.04019  -0.02533  -0.05414
  17        2S          0.12912  -1.19878  -1.68415  -1.06148  -0.09258
  18        3PX         0.00312   0.00017  -0.00054  -0.00907   0.00069
  19        3PY        -0.00240  -0.00194  -0.00806   0.00297  -0.00123
  20        3PZ        -0.01238  -0.00454   0.00262  -0.00212  -0.00422
  21 3   H  1S          0.02095  -0.00578  -0.00184   0.04748  -0.05414
  22        2S          0.12912  -1.19878  -0.07720   1.98926  -0.09258
  23        3PX        -0.00069   0.00114  -0.00245  -0.00731   0.00030
  24        3PY        -0.00351  -0.00166  -0.00981   0.00121  -0.00134
  25        3PZ        -0.01248  -0.00452   0.00295  -0.00132  -0.00424
  26 4   H  1S          0.02095  -0.00578   0.04204  -0.02214  -0.05414
  27        2S          0.12912  -1.19878   1.76135  -0.92777  -0.09258
  28        3PX         0.00209   0.00043  -0.00302  -0.00985   0.00058
  29        3PY        -0.00608  -0.00100  -0.00742   0.00058  -0.00160
  30        3PZ        -0.01128  -0.00482   0.00208  -0.00142  -0.00411
  31 5   H  1S         -0.02582   0.03489   0.00000   0.00000   0.23413
  32        2S         -0.26762  -0.34579   0.00000   0.00000   2.68182
  33        3PX        -0.00157  -0.00043  -0.00072  -0.00314  -0.00037
  34        3PY         0.00416   0.00114  -0.00303   0.00057   0.00099
  35        3PZ         0.01254   0.00344   0.00091  -0.00058   0.00297
  36 6   H  1S          0.15955   0.04044   0.00000   0.00000   0.05769
  37        2S          0.70065   0.24498   0.00000   0.00000  -2.15069
  38        3PX         0.00048   0.00036  -0.00106  -0.00464   0.00006
  39        3PY        -0.00127  -0.00094  -0.00447   0.00084  -0.00016
  40        3PZ        -0.00382  -0.00284   0.00135  -0.00086  -0.00047
                          11        12        13        14        15
                        (A)--V    (A)--V    (A)--V    (A)--V    (A)--V
     EIGENVALUES --     0.72187   0.72187   0.86150   0.91604   1.15597
   1 1   C  1S          0.00000   0.00000   0.05224  -0.00711   0.00000
   2        2S          0.00000   0.00000   0.19470  -0.00362   0.00000
   3        2PX        -0.67204  -0.18134   0.09985   0.07565  -0.50717
   4        2PY         0.14819  -0.64906  -0.26526  -0.20099  -0.62374
   5        2PZ        -0.13319   0.19283  -0.79895  -0.60538   0.14371
   6        3S          0.00000   0.00000  -0.81787  -0.13705   0.00000
   7        3PX         1.41179   0.38094  -0.13713  -0.02758   0.80117
   8        3PY        -0.31131   1.36350   0.36430   0.07329   0.98531
   9        3PZ         0.27979  -0.40509   1.09725   0.22075  -0.22701
  10        4XX        -0.05769   0.02890   0.06052  -0.03650  -0.01545
  11        4YY         0.04643  -0.00969   0.05032  -0.03375  -0.02704
  12        4ZZ         0.01126  -0.01920  -0.04556  -0.00788   0.04248
  13        4XY         0.04056   0.05802   0.00516  -0.00139  -0.25719
  14        4XZ         0.00721  -0.00727   0.01555  -0.00420   0.02770
  15        4YZ        -0.01913   0.03898  -0.04131   0.01115  -0.08999
  16 2   H  1S          0.25400   0.43961   0.31420  -0.11826  -0.75805
  17        2S          0.11782   0.20392   0.16830  -0.00600   1.57465
  18        3PX         0.02963   0.01558  -0.00490   0.01989   0.09540
  19        3PY         0.00058   0.03394  -0.00879   0.01854   0.09918
  20        3PZ         0.00558  -0.00574  -0.00745  -0.00647   0.01783
  21 3   H  1S         -0.50771   0.00016   0.31420  -0.11826   0.30529
  22        2S         -0.23551   0.00008   0.16830  -0.00600  -0.63416
  23        3PX         0.03966   0.00659   0.00923  -0.02636   0.03602
  24        3PY        -0.00987   0.02361  -0.00468   0.00507  -0.07784
  25        3PZ         0.00409  -0.00701  -0.00705  -0.00777   0.01471
  26 4   H  1S          0.25371  -0.43978   0.31420  -0.11826   0.45276
  27        2S          0.11769  -0.20400   0.16830  -0.00600  -0.94049
  28        3PX         0.02617   0.00359  -0.00108   0.00741  -0.07407
  29        3PY        -0.01176   0.03466   0.00484  -0.02608   0.04919
  30        3PZ         0.00925  -0.01464  -0.01150   0.00679  -0.04878
  31 5   H  1S          0.00000   0.00000   0.22251  -0.57024   0.00000
  32        2S          0.00000   0.00000  -0.53138   1.05930   0.00000
  33        3PX         0.03533   0.00953  -0.01213   0.00141  -0.00273
  34        3PY        -0.00779   0.03412   0.03223  -0.00374  -0.00336
  35        3PZ         0.00700  -0.01014   0.09709  -0.01127   0.00077
  36 6   H  1S          0.00000   0.00000   0.33764  -0.74477   0.00000
  37        2S          0.00000   0.00000  -0.29588   0.14390   0.00000
  38        3PX         0.02051   0.00553   0.00007  -0.00199   0.00812
  39        3PY        -0.00452   0.01981  -0.00018   0.00528   0.00999
  40        3PZ         0.00406  -0.00588  -0.00053   0.01591  -0.00230
                          16        17        18        19        20
                        (A)--V    (A)--V    (A)--V    (A)--V    (A)--V
     EIGENVALUES --     1.15597   1.19357   1.29248   1.43234   1.69999
   1 1   C  1S          0.00000   0.06161   0.02941  -0.10738   0.00000
   2        2S         -0.00001  -1.17676   0.67845  -1.72893   0.00000
   3        2PX         0.63281  -0.03374  -0.03136   0.03890   0.06521
   4        2PY        -0.46106   0.08964   0.08332  -0.10335   0.01509
   5        2PZ         0.23216   0.26997   0.25094  -0.31128   0.00314
   6        3S          0.00001   2.28157  -1.85734   4.47966   0.00000
   7        3PX        -0.99964   0.07178   0.10870  -0.08251  -0.00736
   8        3PY         0.72833  -0.19069  -0.28877   0.21920  -0.00170
   9        3PZ        -0.36675  -0.57432  -0.86974   0.66022  -0.00036
  10        4XX        -0.23738   0.05051   0.10571  -0.11518   0.01189
  11        4YY         0.18046   0.03186   0.08277  -0.11695  -0.06153
  12        4ZZ         0.05692  -0.14355  -0.13298  -0.13358   0.04963
  13        4XY         0.04515   0.00944   0.01162   0.00089  -0.04930
  14        4XZ         0.01996   0.02845   0.03499   0.00270   0.64961
  15        4YZ        -0.11397  -0.07558  -0.09296  -0.00717   0.16352
  16 2   H  1S          0.08514   0.53847   0.14690  -0.33726   0.06694
  17        2S         -0.17686  -1.00304   0.01148  -0.71850  -0.04230
  18        3PX         0.04068  -0.06623  -0.00644  -0.00523  -0.01571
  19        3PY        -0.05854  -0.06764   0.01224   0.00644   0.00963
  20        3PZ         0.02016   0.00891   0.04113   0.02590  -0.28976
  21 3   H  1S         -0.69906   0.53848   0.14690  -0.33726  -0.07171
  22        2S          1.45211  -1.00305   0.01148  -0.71850   0.04531
  23        3PX        -0.12964   0.09162  -0.00328  -0.00040  -0.01778
  24        3PY         0.00964  -0.02166   0.01316   0.00785   0.00262
  25        3PZ         0.01641   0.01337   0.04122   0.02603   0.30178
  26 4   H  1S          0.61393   0.53847   0.14691  -0.33726   0.00477
  27        2S         -1.27527  -1.00303   0.01148  -0.71850  -0.00301
  28        3PX         0.01741  -0.02363  -0.00559  -0.00392  -0.17939
  29        3PY         0.10103   0.08464   0.01529   0.01109  -0.06149
  30        3PZ        -0.06282  -0.03633   0.04022   0.02452  -0.02228
  31 5   H  1S          0.00000  -0.10981  -1.04890  -0.22453   0.00000
  32        2S          0.00000   0.56508   3.39344  -1.51837   0.00001
  33        3PX         0.00341  -0.00067  -0.02633  -0.02001   0.20954
  34        3PY        -0.00249   0.00178   0.06996   0.05315   0.04847
  35        3PZ         0.00125   0.00537   0.21071   0.16009   0.01009
  36 6   H  1S          0.00000  -0.35403   0.51093   0.57438   0.00000
  37        2S          0.00000   0.01175  -2.03523   0.22654   0.00000
  38        3PX        -0.01013   0.00148  -0.02190  -0.01738   0.08693
  39        3PY         0.00738  -0.00394   0.05817   0.04617   0.02011
  40        3PZ        -0.00372  -0.01188   0.17521   0.13908   0.00419
                          21        22        23        24        25
                        (A)--V    (A)--V    (A)--V    (A)--V    (A)--V
     EIGENVALUES --     1.69999   2.01643   2.01643   2.16409   2.30059
   1 1   C  1S          0.00000   0.00000   0.00000   0.05449   0.00000
   2        2S          0.00000   0.00000  -0.00001   0.04443   0.00000
   3        2PX        -0.01323   0.09227  -0.01897   0.00891  -0.00465
   4        2PY         0.06183   0.02158   0.08747  -0.02367  -0.08904
   5        2PZ        -0.02218   0.00437  -0.03142  -0.07131   0.02898
   6        3S         -0.00001  -0.00001   0.00003  -0.69490   0.00000
   7        3PX         0.00149  -0.17593   0.03617  -0.03080   0.03548
   8        3PY        -0.00697  -0.04115  -0.16679   0.08184   0.67948
   9        3PZ         0.00250  -0.00833   0.05991   0.24648  -0.22117
  10        4XX        -0.17931   0.05989  -0.04364  -0.23818  -0.30515
  11        4YY         0.48231  -0.04663  -0.06034  -0.14677   0.13841
  12        4ZZ        -0.30301  -0.01326   0.10398   0.71284   0.16673
  13        4XY        -0.26018  -0.08979   0.00389  -0.04629  -0.36154
  14        4XZ        -0.06766  -0.15079   0.03132  -0.13941   0.06394
  15        4YZ         0.38134  -0.03760  -0.15579   0.37038  -0.32931
  16 2   H  1S          0.04416   0.06100   0.04001   0.27466   0.40131
  17        2S         -0.02790  -0.12199  -0.08002   0.05885   0.07590
  18        3PX         0.14938  -0.09376   0.00171  -0.03404   0.00399
  19        3PY        -0.14099   0.03676  -0.03419  -0.10889  -0.29122
  20        3PZ        -0.12225   0.15915   0.13165  -0.15395   0.21955
  21 3   H  1S          0.03590  -0.06515   0.03282   0.27466   0.11510
  22        2S         -0.02268   0.13030  -0.06564   0.05885   0.02177
  23        3PX        -0.04622  -0.05177   0.00421   0.09512  -0.03715
  24        3PY        -0.19835  -0.07480  -0.04052  -0.07126  -0.34995
  25        3PZ        -0.09253  -0.17717   0.11248  -0.15030   0.14664
  26 4   H  1S         -0.08005   0.00415  -0.07284   0.27465  -0.51641
  27        2S          0.05058  -0.00830   0.14566   0.05885  -0.09766
  28        3PX        -0.05996  -0.07475   0.03938   0.00081  -0.01855
  29        3PY         0.13749  -0.01348  -0.13413   0.01572  -0.34923
  30        3PZ         0.28719   0.00759  -0.16913  -0.19097  -0.04382
  31 5   H  1S          0.00000   0.00000   0.00001  -0.25081   0.00000
  32        2S         -0.00001   0.00001  -0.00003   0.29602   0.00000
  33        3PX        -0.04253   0.55301  -0.11370   0.03470  -0.00556
  34        3PY         0.19867   0.12933   0.52427  -0.09219  -0.10640
  35        3PZ        -0.07128   0.02617  -0.18827  -0.27767   0.03463
  36 6   H  1S          0.00000   0.00000   0.00000   0.42308   0.00000
  37        2S          0.00001   0.00000   0.00001  -0.38121   0.00000
  38        3PX        -0.01764   0.56742  -0.11667  -0.02582  -0.01155
  39        3PY         0.08242   0.13271   0.53794   0.06859  -0.22121
  40        3PZ        -0.02957   0.02685  -0.19317   0.20659   0.07200
                          26        27        28        29        30
                        (A)--V    (A)--V    (A)--V    (A)--V    (A)--V
     EIGENVALUES --     2.30059   2.30957   2.72092   2.72093   2.79320
   1 1   C  1S          0.00000   0.00000   0.00000   0.00000   0.01121
   2        2S          0.00000   0.00000   0.00000   0.00000   0.21906
   3        2PX        -0.09299   0.00000  -0.00759  -0.17233   0.01258
   4        2PY         0.00097   0.00000  -0.16498   0.00082  -0.03341
   5        2PZ        -0.01194   0.00000   0.05383  -0.02181  -0.10063
   6        3S          0.00000   0.00000   0.00000   0.00000  -0.36249
   7        3PX         0.70958   0.00001  -0.00310  -0.07036   0.06306
   8        3PY        -0.00739   0.00000  -0.06736   0.00033  -0.16754
   9        3PZ         0.09113   0.00000   0.02197  -0.00890  -0.50463
  10        4XX         0.38200   0.00001  -0.12321   0.24420  -0.17890
  11        4YY        -0.32675  -0.00001  -0.16346  -0.13361  -0.12591
  12        4ZZ        -0.05525   0.00000   0.28667  -0.11060   0.37235
  13        4XY        -0.39626  -0.00001  -0.10621  -0.29845  -0.02683
  14        4XZ        -0.05460   0.00000  -0.00687  -0.41831  -0.08081
  15        4YZ         0.07826   0.00000  -0.47968   0.01654   0.21469
  16 2   H  1S          0.36460   0.00001   0.12345   0.11350   0.08122
  17        2S          0.06895   0.00000  -0.16491  -0.15162  -0.05492
  18        3PX        -0.35869  -0.40673  -0.11800   0.13076  -0.21172
  19        3PY         0.06957   0.37512  -0.08251  -0.29652   0.03820
  20        3PZ         0.04324  -0.17537  -0.46584  -0.32513   0.57272
  21 3   H  1S         -0.52984  -0.00001   0.03657  -0.16366   0.08122
  22        2S         -0.10020   0.00000  -0.04885   0.21863  -0.05492
  23        3PX        -0.29588  -0.15034   0.10022  -0.14998   0.12800
  24        3PY        -0.05820  -0.53741   0.18069   0.25852   0.13717
  25        3PZ        -0.17921   0.15964  -0.18921   0.52976   0.58232
  26 4   H  1S          0.16524   0.00000  -0.16002   0.05016   0.08122
  27        2S          0.03125   0.00000   0.21376  -0.06701  -0.05492
  28        3PX        -0.37971   0.55705   0.02769   0.24411  -0.12004
  29        3PY        -0.00060   0.16228   0.11712   0.03693   0.36594
  30        3PZ         0.00313   0.01574   0.58480  -0.17617   0.47536
  31 5   H  1S          0.00000   0.00000   0.00000   0.00000  -0.04396
  32        2S          0.00000   0.00000   0.00001   0.00000   0.47640
  33        3PX        -0.11111   0.00000  -0.01388  -0.31503   0.00390
  34        3PY         0.00116   0.00000  -0.30160   0.00150  -0.01037
  35        3PZ        -0.01427   0.00000   0.09840  -0.03987  -0.03124
  36 6   H  1S          0.00000   0.00000   0.00000   0.00000  -0.02895
  37        2S          0.00000   0.00000   0.00000   0.00000  -0.12983
  38        3PX        -0.23101   0.00000   0.01929   0.43781   0.01115
  39        3PY         0.00241   0.00000   0.41914  -0.00208  -0.02963
  40        3PZ        -0.02967   0.00000  -0.13675   0.05540  -0.08924
                          31        32        33        34        35
                        (A)--V    (A)--V    (A)--V    (A)--V    (A)--V
     EIGENVALUES --     2.96600   3.00527   3.00527   3.14982   3.14982
   1 1   C  1S         -0.05662   0.00000   0.00000   0.00000   0.00000
   2        2S         -0.12952   0.00000  -0.00001   0.00000   0.00000
   3        2PX         0.00001  -0.03725   0.00993  -0.23430   0.00180
   4        2PY        -0.00003  -0.01088  -0.03523  -0.01048  -0.22386
[...]
      X                                                                                                                              
      X                                                                                                                              
      X                                                                                                                              
      X                                                                                                                              
      X                                                                                                                              
      X                                                                                                                              
      X                                                                                                                              
      X                                                                                                                              
      X                                                                                                                              
      X                                                                                                                              
      X                                                                                                                              
      X                                                                                                                              
      X                                                                                                                              
 
 ***** Axes restored to original set *****
 -------------------------------------------------------------------
 Center     Atomic                   Forces (Hartrees/Bohr)
 Number     Number              X              Y              Z
 -------------------------------------------------------------------
    1          6          -0.021592012   -0.000000112    0.000000206
    2          1           0.001408290   -0.000223101    0.000471017
    3          1           0.001408241   -0.000296434   -0.000428950
    4          1           0.001408351    0.000519584   -0.000042266
    5          1           0.010653021   -0.000000021   -0.000000027
    6          1           0.006714109    0.000000084    0.000000020
 -------------------------------------------------------------------
 Cartesian Forces:  Max     0.021592012 RMS     0.005923335
 ------------------------------------------------------------------------
           Internal Coordinate Forces (Hartree/Bohr or radian)
 Cent Atom N1     Length/X     N2     Alpha/Y      N3      Beta/Z       J
 ------------------------------------------------------------------------
   1  C        -0.021592(   1)      0.000000(   7)      0.000000(  13)
   2  H         0.001408(   2)     -0.000223(   8)      0.000471(  14)
   3  H         0.001408(   3)     -0.000296(   9)     -0.000429(  15)
   4  H         0.001408(   4)      0.000520(  10)     -0.000042(  16)
   5  H         0.010653(   5)      0.000000(  11)      0.000000(  17)
   6  H         0.006714(   6)      0.000000(  12)      0.000000(  18)
 ------------------------------------------------------------------------
 Internal  Forces:  Max     0.021592012 RMS     0.005923335
 Force constants in Cartesian coordinates: 
                1             2             3             4             5
      1  0.813263D-01
      2 -0.369217D-05  0.630206D+00
      3  0.000000D+00  0.000000D+00  0.630206D+00
      4 -0.324770D-01 -0.335018D-01  0.707172D-01  0.313314D-01
      5 -0.256407D-01 -0.112857D+00  0.116960D+00  0.291695D-01  0.109483D+00
      6  0.541236D-01  0.116960D+00 -0.304329D+00 -0.615723D-01 -0.126452D+00
      7 -0.324767D-01 -0.444915D-01 -0.643718D-01  0.464863D-02  0.438295D-02
      8 -0.340516D-01 -0.155172D+00 -0.141391D+00  0.317988D-02  0.103918D-01
      9 -0.492671D-01 -0.141391D+00 -0.262015D+00 -0.770154D-02 -0.173173D-01
     10 -0.324783D-01  0.779970D-01 -0.634526D-02  0.464872D-02 -0.825974D-02
     11  0.596959D-01 -0.357750D+00  0.244306D-01  0.394560D-02 -0.688709D-02
     12 -0.485641D-02  0.244306D-01 -0.594347D-01 -0.733915D-02  0.272931D-01
     13  0.936069D-01  0.000000D+00  0.000000D+00 -0.108981D-01  0.269751D-03
     14  0.000000D+00 -0.936601D-02  0.000000D+00 -0.301126D-02 -0.388351D-04
     15  0.000000D+00  0.000000D+00 -0.936602D-02  0.635627D-02 -0.143887D-03
     16 -0.775013D-01  0.000000D+00  0.000000D+00  0.274632D-02  0.782129D-04
     17  0.000000D+00  0.493873D-02  0.000000D+00  0.218143D-03 -0.925130D-04
     18  0.000000D+00  0.000000D+00  0.493869D-02 -0.460502D-03 -0.339927D-03
                6             7             8             9            10
      6  0.316495D+00
      7  0.708632D-02  0.313311D-01
      8  0.131497D-01  0.387380D-01  0.155233D+00
      9 -0.150528D-01  0.560474D-01  0.152866D+00  0.270747D+00
     10  0.109696D-02  0.464870D-02 -0.832838D-02  0.252536D-03  0.313326D-01
     11 -0.317373D-02  0.507998D-02 -0.104963D-01  0.525753D-02 -0.679112D-01
     12  0.222600D-02  0.660489D-02 -0.252093D-01  0.583523D-02  0.552476D-02
     13 -0.569590D-03 -0.108982D-01  0.358278D-03  0.518476D-03 -0.108979D-01
     14 -0.143927D-03 -0.399907D-02  0.132317D-04  0.173989D-03  0.701028D-02
     15  0.196806D-03 -0.578597D-02  0.173957D-03  0.144730D-03 -0.570307D-03
     16 -0.165051D-03  0.274633D-02  0.103861D-03  0.150246D-03  0.274623D-02
     17 -0.339924D-03  0.289703D-03  0.304695D-04  0.410927D-03 -0.507944D-03
     18  0.463970D-03  0.419169D-03  0.410930D-03  0.340990D-03  0.413167D-04
               11            12            13            14            15
     11  0.374252D+00
     12 -0.264133D-01  0.517258D-01
     13 -0.628253D-03  0.510986D-04  0.146492D+00
     14  0.262582D-03 -0.300590D-04 -0.105643D-05  0.200855D-01
     15 -0.300665D-04 -0.104566D-03  0.000000D+00  0.000000D+00  0.200855D-01
     16 -0.182010D-03  0.148092D-04 -0.207405D+00  0.138682D-05  0.000000D+00
     17  0.619218D-03 -0.710036D-04  0.104063D-05 -0.109565D-01  0.000000D+00
     18 -0.710030D-04 -0.247776D-03  0.000000D+00  0.000000D+00 -0.109564D-01
               16            17            18
     16  0.276667D+00
     17 -0.127549D-05  0.546056D-02
     18  0.000000D+00  0.000000D+00  0.546057D-02
 Force constants in internal coordinates: 
                1             2             3             4             5
      1  0.813263D-01
      2 -0.324770D-01  0.313314D-01
      3 -0.324767D-01  0.464863D-02  0.313311D-01
      4 -0.324783D-01  0.464872D-02  0.464870D-02  0.313326D-01
      5  0.936069D-01 -0.108981D-01 -0.108982D-01 -0.108979D-01  0.146492D+00
      6 -0.775013D-01  0.274632D-02  0.274633D-02  0.274623D-02 -0.207405D+00
      7 -0.369217D-05 -0.335018D-01 -0.444915D-01  0.779970D-01  0.000000D+00
      8 -0.256407D-01  0.291695D-01  0.438295D-02 -0.825974D-02  0.269751D-03
      9 -0.340516D-01  0.317988D-02  0.387380D-01 -0.832838D-02  0.358278D-03
     10  0.596959D-01  0.394560D-02  0.507998D-02 -0.679112D-01 -0.628253D-03
     11  0.000000D+00 -0.301126D-02 -0.399907D-02  0.701028D-02 -0.105643D-05
     12  0.000000D+00  0.218143D-03  0.289703D-03 -0.507944D-03  0.104063D-05
     13  0.000000D+00  0.707172D-01 -0.643718D-01 -0.634526D-02  0.000000D+00
     14  0.541236D-01 -0.615723D-01  0.708632D-02  0.109696D-02 -0.569590D-03
     15 -0.492671D-01 -0.770154D-02  0.560474D-01  0.252536D-03  0.518476D-03
     16 -0.485641D-02 -0.733915D-02  0.660489D-02  0.552476D-02  0.510986D-04
     17  0.000000D+00  0.635627D-02 -0.578597D-02 -0.570307D-03  0.000000D+00
     18  0.000000D+00 -0.460502D-03  0.419169D-03  0.413167D-04  0.000000D+00
                6             7             8             9            10
      6  0.276667D+00
      7  0.000000D+00  0.630206D+00
      8  0.782129D-04 -0.112857D+00  0.109483D+00
      9  0.103861D-03 -0.155172D+00  0.103918D-01  0.155233D+00
     10 -0.182010D-03 -0.357750D+00 -0.688709D-02 -0.104963D-01  0.374252D+00
     11  0.138682D-05 -0.936601D-02 -0.388351D-04  0.132317D-04  0.262582D-03
     12 -0.127549D-05  0.493873D-02 -0.925130D-04  0.304695D-04  0.619218D-03
     13  0.000000D+00  0.000000D+00  0.116960D+00 -0.141391D+00  0.244306D-01
     14 -0.165051D-03  0.116960D+00 -0.126452D+00  0.131497D-01 -0.317373D-02
     15  0.150246D-03 -0.141391D+00 -0.173173D-01  0.152866D+00  0.525753D-02
     16  0.148092D-04  0.244306D-01  0.272931D-01 -0.252093D-01 -0.264133D-01
     17  0.000000D+00  0.000000D+00 -0.143887D-03  0.173957D-03 -0.300665D-04
     18  0.000000D+00  0.000000D+00 -0.339927D-03  0.410930D-03 -0.710030D-04
               11            12            13            14            15
     11  0.200855D-01
     12 -0.109565D-01  0.546056D-02
     13  0.000000D+00  0.000000D+00  0.630206D+00
     14 -0.143927D-03 -0.339924D-03 -0.304329D+00  0.316495D+00
     15  0.173989D-03  0.410927D-03 -0.262015D+00 -0.150528D-01  0.270747D+00
     16 -0.300590D-04 -0.710036D-04 -0.594347D-01  0.222600D-02  0.583523D-02
     17  0.000000D+00  0.000000D+00 -0.936602D-02  0.196806D-03  0.144730D-03
     18  0.000000D+00  0.000000D+00  0.493869D-02  0.463970D-03  0.340990D-03
               16            17            18
     16  0.517258D-01
     17 -0.104566D-03  0.200855D-01
     18 -0.247776D-03 -0.109564D-01  0.546057D-02
 Leave Link  716 at Wed Apr 17 22:15:58 2013, MaxMem=    6291456 cpu:       0.0
 (Enter /soft/g03/g03/l103.exe)

 GradGradGradGradGradGradGradGradGradGradGradGradGradGradGradGradGradGrad
 Berny optimization.
 Search for a local minimum.
 Step number   1 out of a maximum of   2
 All quantities printed in internal units (Hartrees-Bohrs-Radians)
 Second derivative matrix not updated -- analytic derivatives used.
 The second derivative matrix:
                          X1        Y1        Z1        X2        Y2
           X1           0.08133
           Y1           0.00000   0.63021
           Z1           0.00000   0.00000   0.63021
           X2          -0.03248  -0.03350   0.07072   0.03133
           Y2          -0.02564  -0.11286   0.11696   0.02917   0.10948
           Z2           0.05412   0.11696  -0.30433  -0.06157  -0.12645
           X3          -0.03248  -0.04449  -0.06437   0.00465   0.00438
           Y3          -0.03405  -0.15517  -0.14139   0.00318   0.01039
           Z3          -0.04927  -0.14139  -0.26201  -0.00770  -0.01732
           X4          -0.03248   0.07800  -0.00635   0.00465  -0.00826
           Y4           0.05970  -0.35775   0.02443   0.00395  -0.00689
           Z4          -0.00486   0.02443  -0.05943  -0.00734   0.02729
           X5           0.09361   0.00000   0.00000  -0.01090   0.00027
           Y5           0.00000  -0.00937   0.00000  -0.00301  -0.00004
           Z5           0.00000   0.00000  -0.00937   0.00636  -0.00014
           X6          -0.07750   0.00000   0.00000   0.00275   0.00008
           Y6           0.00000   0.00494   0.00000   0.00022  -0.00009
           Z6           0.00000   0.00000   0.00494  -0.00046  -0.00034
                          Z2        X3        Y3        Z3        X4
           Z2           0.31650
           X3           0.00709   0.03133
           Y3           0.01315   0.03874   0.15523
           Z3          -0.01505   0.05605   0.15287   0.27075
           X4           0.00110   0.00465  -0.00833   0.00025   0.03133
           Y4          -0.00317   0.00508  -0.01050   0.00526  -0.06791
           Z4           0.00223   0.00660  -0.02521   0.00584   0.00552
           X5          -0.00057  -0.01090   0.00036   0.00052  -0.01090
           Y5          -0.00014  -0.00400   0.00001   0.00017   0.00701
           Z5           0.00020  -0.00579   0.00017   0.00014  -0.00057
           X6          -0.00017   0.00275   0.00010   0.00015   0.00275
           Y6          -0.00034   0.00029   0.00003   0.00041  -0.00051
           Z6           0.00046   0.00042   0.00041   0.00034   0.00004
                          Y4        Z4        X5        Y5        Z5
           Y4           0.37425
           Z4          -0.02641   0.05173
           X5          -0.00063   0.00005   0.14649
           Y5           0.00026  -0.00003   0.00000   0.02009
           Z5          -0.00003  -0.00010   0.00000   0.00000   0.02009
           X6          -0.00018   0.00001  -0.20740   0.00000   0.00000
           Y6           0.00062  -0.00007   0.00000  -0.01096   0.00000
           Z6          -0.00007  -0.00025   0.00000   0.00000  -0.01096
                          X6        Y6        Z6
           X6           0.27667
           Y6           0.00000   0.00546
           Z6           0.00000   0.00000   0.00546
     Eigenvalues ---   -0.02438   0.00815   0.00816   0.03143   0.03143
     Eigenvalues ---    0.05988   0.11270   0.11270   0.39999   0.47222
     Eigenvalues ---    0.84987   0.84987
 Eigenvalue   1 out of range, new value =    0.024382 Eigenvector:
                           1
           X1           0.45851
           Y1           0.00000
           Z1           0.00000
           X2           0.02384
           Y2           0.02831
           Z2          -0.05976
           X3           0.02384
           Y3           0.03760
           Z3           0.05440
           X4           0.02385
           Y4          -0.06591
           Z4           0.00536
           X5          -0.77248
           Y5           0.00000
           Z5           0.00000
           X6          -0.42216
           Y6           0.00000
           Z6           0.00000
 Quadratic step=8.713D-01 exceeds max=3.000D-01 adjusted using Lamda=-4.799D-02.
 Angle between NR and scaled steps=   5.92 degrees.
 Angle between quadratic step and forces=  25.82 degrees.
 Linear search not attempted -- first point.
 TrRot= -0.040673  0.000000  0.000000  0.000000  0.000000  0.000000
 Variable       Old X    -DE/DX   Delta X   Delta X   Delta X     New X
                                 (Linear)    (Quad)   (Total)
    X1       -0.55319  -0.02159   0.00000  -0.16836  -0.20904  -0.76223
    Y1        0.00000   0.00000   0.00000   0.00000   0.00000   0.00000
    Z1        0.00000   0.00000   0.00000   0.00000   0.00000   0.00000
    X2       -0.97115   0.00141   0.00000   0.03110  -0.00958  -0.98072
    Y2       -0.85463  -0.00022   0.00000  -0.01172  -0.01172  -0.86635
    Z2        1.80398   0.00047   0.00000   0.02473   0.02473   1.82871
    X3       -0.97114   0.00141   0.00000   0.03110  -0.00958  -0.98072
    Y3       -1.13498  -0.00030   0.00000  -0.01556  -0.01556  -1.15054
    Z3       -1.64212  -0.00043   0.00000  -0.02251  -0.02251  -1.66463
    X4       -0.97117   0.00141   0.00000   0.03110  -0.00957  -0.98074
    Y4        1.98961   0.00052   0.00000   0.02728   0.02728   2.01688
    Z4       -0.16186  -0.00004   0.00000  -0.00222  -0.00222  -0.16408
    X5        2.37560   0.01065   0.00000   0.21296   0.17229   2.54789
    Y5        0.00001   0.00000   0.00000   0.00000   0.00000   0.00001
    Z5        0.00000   0.00000   0.00000   0.00000   0.00000   0.00000
    X6        3.85700   0.00671   0.00000   0.10615   0.06548   3.92248
    Y6        0.00000   0.00000   0.00000   0.00000   0.00000   0.00000
    Z6        0.00000   0.00000   0.00000   0.00000   0.00000   0.00000
         Item               Value     Threshold  Converged?
 Maximum Force            0.021592     0.000450     NO 
 RMS     Force            0.005923     0.000300     NO 
 Maximum Displacement     0.209035     0.001800     NO 
 RMS     Displacement     0.066745     0.001200     NO 
 Predicted change in Energy=-7.604057D-03
 GradGradGradGradGradGradGradGradGradGradGradGradGradGradGradGradGradGrad

 Leave Link  103 at Wed Apr 17 22:15:58 2013, MaxMem=    6291456 cpu:       0.0
 (Enter /soft/g03/g03/l9999.exe)

 Test job not archived.
 1\1\GINC-AN178\Freq\UMP2-FC\6-31G(d,p)\C1H5(2)\SCANNE04\17-Apr-2013\0\
 \#P MP2 6-31G** IOP(6/7=3) GFINPUT POP=FULL # FREQ\\job\\0,2\C,-0.2927
 360909,-0.0000000909,-0.0000000909\H,-0.5139090909,-0.4522520909,0.954
 6259091\H,-0.5139070909,-0.6006070909,-0.8689730909\H,-0.5139190909,1.
 0528539091,-0.0856530909\H,1.2571139091,0.0000049091,0.0000009091\H,2.
 0410379091,0.0000009091,-0.0000000909\\Version=AM64L-G03RevC.02\State=
 2-A\HF=-40.6684544\MP2=-40.8304258\PUHF=-40.6734575\PMP2-0=-40.8337871
 \S2=0.773467\S2-1=0.757946\S2A=0.750302\RMSD=3.960e-09\RMSF=5.923e-03\
 Dipole=-0.2766668,-0.0000013,-0.0000001\DipoleDeriv=-0.146589,-0.00000
 18,-0.0000002,-0.0000022,0.0591914,-0.0000002,-0.0000003,-0.0000002,0.
 059191,0.0636346,-0.0215517,0.045493,-0.0028394,0.0278861,0.0425151,0.
 005994,0.0425147,-0.0417139,0.0636346,-0.0286214,-0.0414109,-0.0037708
 ,0.0125045,-0.0513954,-0.005456,-0.0513952,-0.0263324,0.0636347,0.0501
 754,-0.0040819,0.0066117,-0.0611319,0.0088805,-0.0005378,0.0088806,0.0
 473052,0.2262174,-0.0000002,0.,-0.0000001,-0.0236045,0.,0.,0.,-0.02360
 43,-0.2705324,-0.0000003,0.,0.0000008,-0.0148455,0.,0.0000001,0.,-0.01
 48455\Polar=23.4558555,-0.000053,12.4468862,-0.0000086,-0.0000018,12.4
 468865\PG=C01 [X(C1H5)]\NImag=1\\0.08132632,-0.00000369,0.63020632,-0.
 00000015,0.00000035,0.63020607,-0.03247697,-0.03350184,0.07071718,0.03
 133144,-0.02564065,-0.11285672,0.11695995,0.02916948,0.10948337,0.0541
 2363,0.11695979,-0.30432927,-0.06157227,-0.12645193,0.31649532,-0.0324
 7665,-0.04449153,-0.06437180,0.00464863,0.00438295,0.00708632,0.031331
 14,-0.03405161,-0.15517207,-0.14139088,0.00317988,0.01039179,0.0131497
 2,0.03873796,0.15523287,-0.04926710,-0.14139076,-0.26201480,-0.0077015
 4,-0.01731727,-0.01505283,0.05604738,0.15286559,0.27074668,-0.03247835
 ,0.07799700,-0.00634526,0.00464872,-0.00825974,0.00109696,0.00464870,-
 0.00832838,0.00025254,0.03133259,0.05969591,-0.35775024,0.02443059,0.0
 0394560,-0.00688709,-0.00317373,0.00507998,-0.01049630,0.00525753,-0.0
 6791122,0.37425183,-0.00485641,0.02443062,-0.05943468,-0.00733915,0.02
 729307,0.00222600,0.00660489,-0.02520931,0.00583523,0.00552476,-0.0264
 1332,0.05172579,0.09360692,0.00000024,0.00000007,-0.01089814,0.0002697
 5,-0.00056959,-0.01089815,0.00035828,0.00051848,-0.01089789,-0.0006282
 5,0.00005110,0.14649209,-0.00000029,-0.00936601,0.,-0.00301126,-0.0000
 3884,-0.00014393,-0.00399907,0.00001323,0.00017399,0.00701028,0.000262
 58,-0.00003006,-0.00000106,0.02008550,-0.00000004,0.,-0.00936602,0.006
 35627,-0.00014389,0.00019681,-0.00578597,0.00017396,0.00014473,-0.0005
 7031,-0.00003007,-0.00010457,-0.00000032,0.,0.02008549,-0.07750127,-0.
 00000018,-0.00000004,0.00274632,0.00007821,-0.00016505,0.00274633,0.00
 010386,0.00015025,0.00274623,-0.00018201,0.00001481,-0.20740483,0.0000
 0139,0.00000036,0.27666723,0.00000033,0.00493873,0.,0.00021814,-0.0000
 9251,-0.00033992,0.00028970,0.00003047,0.00041093,-0.00050794,0.000619
 22,-0.00007100,0.00000104,-0.01095646,0.,-0.00000128,0.00546056,0.0000
 0008,0.,0.00493869,-0.00046050,-0.00033993,0.00046397,0.00041917,0.000
 41093,0.00034099,0.00004132,-0.00007100,-0.00024778,0.00000026,0.,-0.0
 1095645,-0.00000032,0.,0.00546057\\0.02159201,0.00000011,-0.00000021,-
 0.00140829,0.00022310,-0.00047102,-0.00140824,0.00029643,0.00042895,-0
 .00140835,-0.00051958,0.00004227,-0.01065302,0.00000002,0.00000003,-0.
 00671411,-0.00000008,-0.00000002\\\@


 I DON'T EXACTLY UNDERSTAND WHAT YOU ARE SAYING,
 BUT YOU ARE ABSOLUTELY RIGHT.
     M.S.GORDON, IN A NDSU FACULTY MEETING
 Job cpu time:  0 days  0 hours  0 minutes  9.6 seconds.
 File lengths (MBytes):  RWF=     54 Int=      0 D2E=      0 Chk=      6 Scr=      1
 Normal termination of Gaussian 03 at Wed Apr 17 22:15:58 2013.
total 36
drwx------  2 scanne04 2013007  4096 Apr 17 22:15 .
drwxrwxrwt 82 root     root    28672 Apr 17 22:15 ..
-rw-r--r--  1 scanne04 2013007   395 Apr 17 22:15 3.f_0.299.inp
/local/run/antares-adm.116016.0
