----- GAMESS execution script 'rungms' -----
This job is running on host chimie-106
under operating system Linux at jeudi 11 avril 2019, 09:36:50 (UTC+0200)
Available scratch disk space (Kbyte units) at beginning of the job is
Sys. de fichiers blocs de 1K  Utilisé Disponible Uti% Monté sur
/dev/sda2          483487264 16129692  442774764   4% /
GAMESS temporary binary files will be written to /tmp
GAMESS supplementary output files will be written to /tmp
Copying input file saddle2.inp to your run's scratch directory...
 
Assuming a single but multicore node.
 

 Distributed Data Interface kickoff program.
 Initiating 4 compute processes on 1 nodes to run the following command:
 /usr/local/lib/gamess/gamess.00.x saddle2 

          ******************************************************
          *         GAMESS VERSION = 14 FEB 2018 (R1)         *
          *             FROM IOWA STATE UNIVERSITY             *
          * M.W.SCHMIDT, K.K.BALDRIDGE, J.A.BOATZ, S.T.ELBERT, *
          *   M.S.GORDON, J.H.JENSEN, S.KOSEKI, N.MATSUNAGA,   *
          *          K.A.NGUYEN, S.J.SU, T.L.WINDUS,           *
          *       TOGETHER WITH M.DUPUIS, J.A.MONTGOMERY       *
          *         J.COMPUT.CHEM.  14, 1347-1363(1993)        *
          **************** 64 BIT LINUX VERSION ****************

  SINCE 1993, STUDENTS AND POSTDOCS WORKING AT IOWA STATE UNIVERSITY
  AND ALSO IN THEIR VARIOUS JOBS AFTER LEAVING ISU HAVE MADE IMPORTANT
  CONTRIBUTIONS TO THE CODE:
     IVANA ADAMOVIC, CHRISTINE AIKENS, YURI ALEXEEV, POOJA ARORA,
     ANDREY ASADCHEV, ROB BELL, PRADIPTA BANDYOPADHYAY, JONATHAN BENTZ,
     BRETT BODE, KURT BRORSEN, CALEB CARLIN, GALINA CHABAN, WEI CHEN,
     CHEOL HO CHOI, PAUL DAY, ALBERT DEFUSCO, NUWAN DESILVA, TIM DUDLEY,
     DMITRI FEDOROV, ALEX FINDLATER, GRAHAM FLETCHER, MARK FREITAG,
     KURT GLAESEMANN, ANASTASIA GUININA,
     DAN KEMP, GRANT MERRILL, NORIYUKI MINEZAWA, JONATHAN MULLIN,
     TAKESHI NAGATA, SEAN NEDD, HEATHER NETZLOFF, BOSILJKA NJEGIC, RYAN OLSON,
     MIKE PAK, BUU PHAM,
     SPENCER PRUITT, LUKE ROSKOP, JIM SHOEMAKER, LYUDMILA SLIPCHENKO,
     TONY SMITH, SAROM SOK LEANG, JIE SONG, TETSUYA TAKETSUGU, SIMON WEBB,
     PENG XU, SOOHAENG YOO, FEDERICO ZAHARIEV

  ADDITIONAL CODE HAS BEEN PROVIDED BY COLLABORATORS IN OTHER GROUPS:
     IOWA STATE UNIVERSITY:
          JOE IVANIC, AARON WEST, LAIMUTIS BYTAUTAS, KLAUS RUEDENBERG
     UNIVERSITY OF TOKYO: KIMIHIKO HIRAO, TAKAHITO NAKAJIMA,
          TAKAO TSUNEDA, MUNEAKI KAMIYA, SUSUMU YANAGISAWA,
          KIYOSHI YAGI, MAHITO CHIBA, SEIKEN TOKURA, NAOAKI KAWAKAMI
     UNIVERSITY OF AARHUS: FRANK JENSEN
     UNIVERSITY OF IOWA: VISVALDAS KAIRYS, HUI LI
     NATIONAL INST. OF STANDARDS AND TECHNOLOGY: WALT STEVENS, DAVID GARMER
     UNIVERSITY OF PISA: BENEDETTA MENNUCCI, JACOPO TOMASI
     UNIVERSITY OF MEMPHIS: HENRY KURTZ, PRAKASHAN KORAMBATH
     UNIVERSITY OF ALBERTA: TOBY ZENG, MARIUSZ KLOBUKOWSKI
     UNIVERSITY OF NEW ENGLAND: MARK SPACKMAN
     MIE UNIVERSITY: HIROAKI UMEDA
     NAT. INST. OF ADVANCED INDUSTRIAL SCIENCE AND TECHNOLOGY: KAZUO KITAURA
     MICHIGAN STATE UNIVERSITY:
          KAROL KOWALSKI, MARTA WLOCH, JEFFREY GOUR, JESSE LUTZ,
          WEI LI, PIOTR PIECUCH
     UNIVERSITY OF SILESIA: MONIKA MUSIAL, STANISLAW KUCHARSKI
     FACULTES UNIVERSITAIRES NOTRE-DAME DE LA PAIX:
          OLIVIER QUINET, BENOIT CHAMPAGNE
     UNIVERSITY OF CALIFORNIA - SANTA BARBARA: BERNARD KIRTMAN
     INSTITUTE FOR MOLECULAR SCIENCE:
          KAZUYA ISHIMURA, MICHIO KATOUDA, AND SHIGERU NAGASE
     UNIVERSITY OF NOTRE DAME: ANNA POMOGAEVA, DAN CHIPMAN
     KYUSHU UNIVERSITY:
          HARUYUKI NAKANO,
          FENG LONG GU, JACEK KORCHOWIEC, MARCIN MAKOWSKI, AND YURIKO AOKI,
          HIROTOSHI MORI AND EISAKU MIYOSHI
     PENNSYLVANIA STATE UNIVERSITY:
          TZVETELIN IORDANOV, CHET SWALINA, JONATHAN SKONE,
          SHARON HAMMES-SCHIFFER
     WASEDA UNIVERSITY:
          MASATO KOBAYASHI, TOMOKO AKAMA, TSUGUKI TOUMA,
          TAKESHI YOSHIKAWA, YASUHIRO IKABATA, JUNJI SEINO,
          YUYA NAKAJIMA, HIROMI NAKAI
     NANJING UNIVERSITY: SHUHUA LI
     UNIVERSITY OF NEBRASKA:
          PEIFENG SU, DEJUN SI, NANDUN THELLAMUREGE, YALI WANG, HUI LI
     UNIVERSITY OF ZURICH: ROBERTO PEVERATI, KIM BALDRIDGE
     N. COPERNICUS UNIVERSITY AND JACKSON STATE UNIVERSITY:
          MARIA BARYSZ
     UNIVERSITY OF COPENHAGEN: Jimmy Kromann, CASPER STEINMANN
     TOKYO INSTITUTE OF TECHNOLOGY: HIROYA NAKATA
     NAGOYA UNIVERSITY: YOSHIO NISHIMOTO, STEPHAN IRLE
     MOSCOW STATE UNIVERSITY: VLADIMIR MIRONOV


 PARALLEL VERSION RUNNING ON        4 PROCESSORS IN        1 NODES.

 EXECUTION OF GAMESS BEGUN Thu Apr 11 09:36:50 2019

            ECHO OF THE FIRST FEW INPUT CARDS -
 INPUT CARD> $CONTRL SCFTYP=RHF RUNTYP=HESSIAN  ICHARG=1 $END                               
 INPUT CARD> $SYSTEM TIMLIM=1 $END                                                          
 INPUT CARD> $GUESS  GUESS=HUCKEL $END                                                      
 INPUT CARD> $BASIS  GBASIS=STO NGAUSS=3 $END                                               
 INPUT CARD> $DATA                                                                          
 INPUT CARD>2 freq imaginaires                                                              
 INPUT CARD>C1                                                                              
 INPUT CARD>O 8  0.074061   -0.042562    0.050017                                           
 INPUT CARD>C 6  0.040178   -0.102538    1.369910                                           
 INPUT CARD>O 8  0.982408   -0.188837    2.098140                                           
 INPUT CARD>C 6 -1.347880   -0.051338    1.907500                                           
 INPUT CARD>C 6 -2.437387    0.036110    1.137088                                           
 INPUT CARD>C 6 -3.749616    0.074997    1.707797                                           
 INPUT CARD>O 8 -4.753991    0.152896    0.970788                                           
 INPUT CARD>C 6 -4.114368    0.017145    3.183304                                           
 INPUT CARD>N 7 -5.550664    0.184531    3.218794                                           
 INPUT CARD>C 6 -6.075519    1.447043    3.766672                                           
 INPUT CARD>H 1 -6.382502    2.114571    2.966656                                           
 INPUT CARD>H 1 -5.332043    1.949396    4.380354                                           
 INPUT CARD>H 1 -6.939071    1.237768    4.388118                                           
 INPUT CARD>H 1 -6.009115   -0.613468    3.628864                                           
 INPUT CARD>H 1 -3.804606   -0.948354    3.582336                                           
 INPUT CARD>H 1 -3.583423    0.789904    3.737049                                           
 INPUT CARD>H 1 -1.388408   -0.094088    2.986490                                           
 INPUT CARD>H 1 -2.367961    0.076456    0.060213                                           
 INPUT CARD>H 1  0.994900   -0.080481   -0.239892                                           
 INPUT CARD>H 1 -5.531054    0.159801    1.713736                                           
 INPUT CARD> $END                                                                           
 INPUT CARD>                                                                                
    1000000 WORDS OF MEMORY AVAILABLE

     BASIS OPTIONS
     -------------
     GBASIS=STO          IGAUSS=       3      POLAR=NONE    
     NDFUNC=       0     NFFUNC=       0     DIFFSP=       F
     NPFUNC=       0      DIFFS=       F     BASNAM=        


     RUN TITLE
     ---------
 2 freq imaginaires                                                              

 THE POINT GROUP OF THE MOLECULE IS C1      
 THE ORDER OF THE PRINCIPAL AXIS IS     0

 ATOM      ATOMIC                      COORDINATES (BOHR)
           CHARGE         X                   Y                   Z
 O           8.0     0.1399549964       -0.0804305175        0.0945184247
 C           6.0     0.0759254107       -0.1937687233        2.5887545278
 O           8.0     1.8564819281       -0.3568501863        3.9649096839
 C           6.0    -2.5471238643       -0.0970147528        3.6046523216
 C           6.0    -4.6059935560        0.0682380054        2.1487847439
 C           6.0    -7.0857467992        0.1417237799        3.2272683727
 O           8.0    -8.9837403381        0.2889315446        1.8345233122
 C           6.0    -7.7750281327        0.0323993521        6.0155722956
 N           7.0   -10.4892340099        0.3487130262        6.0826386709
 C           6.0   -11.4810661432        2.7345147625        7.1179779656
 H           1.0   -12.0611798961        3.9959597716        5.6061669398
 H           1.0   -10.0761002248        3.6838242816        8.2776687892
 H           1.0   -13.1129427993        2.3390423564        8.2923406218
 H           1.0   -11.3555807787       -1.1592864222        6.8575586067
 H           1.0    -7.1896628312       -1.7921291994        6.7696334360
 H           1.0    -6.7716875681        1.4927021166        7.0619986127
 H           1.0    -2.6237106792       -0.1778005387        5.6436477651
 H           1.0    -4.4747974396        0.1444808901        0.1137860709
 H           1.0     1.8800883852       -0.1520870372       -0.4533301466
 H           1.0   -10.4521764833        0.3019801026        3.2384914553

          INTERNUCLEAR DISTANCES (ANGS.)
          ------------------------------

                1 O          2 C          3 O          4 C          5 C     

   1 O       0.0000000    1.3216893 *  2.2452836 *  2.3392812 *  2.7377516 *
   2 C       1.3216893 *  0.0000000    1.1939698 *  1.4894057 *  2.4923398 *
   3 O       2.2452836 *  1.1939698 *  0.0000000    2.3421127 *  3.5593848  
   4 C       2.3392812 *  1.4894057 *  2.3421127 *  0.0000000    1.3372387 *
   5 C       2.7377516 *  2.4923398 *  3.5593848    1.3372387 *  0.0000000  
   6 C       4.1692398    3.8089664    4.7554208    2.4133333 *  1.4314908 *
   7 O       4.9189541    4.8175306    5.8561060    3.5384648    2.3254997 *
   8 C       5.2310601    4.5346416    5.2150873    3.0472646    2.6456804 *
   9 N       6.4598955    5.8956166    6.6389983    4.4089136    3.7480691  
  10 C       7.3382410    6.7488828    7.4346779    5.2964362    4.7054701  
  11 H       7.4058903    6.9796840    7.7654303    5.5821494    4.8198809  
  12 H       7.2073349    6.4910681    7.0464766    5.0981858    4.7495759  
  13 H       8.3452014    7.7211344    8.3683350    6.2511340    5.6814027  
  14 H       7.0808975    6.4774894    7.1697156    5.0006195    4.4031966  
  15 H       5.3237012    4.5158164    5.0690440    3.1056748    2.9694604 *
  16 H       5.2596952    4.4193081    4.9488149    3.0087523    2.9396260 *
  17 H       3.2809060    2.1573735 *  2.5335571 *  1.0805968 *  2.1301634 *
  18 H       2.4449419 *  2.7470855 *  3.9304579    2.1140875 *  1.0798646 *
  19 H       0.9661416 *  1.8717487 *  2.3405749 *  3.1781693    3.7000353  
  20 H       5.8503184    5.5879928    6.5341030    4.1929785    3.1493806  

                6 C          7 O          8 C          9 N         10 C     

   1 O       4.1692398    4.9189541    5.2310601    6.4598955    7.3382410  
   2 C       3.8089664    4.8175306    4.5346416    5.8956166    6.7488828  
   3 O       4.7554208    5.8561060    5.2150873    6.6389983    7.4346779  
   4 C       2.4133333 *  3.5384648    3.0472646    4.4089136    5.2964362  
   5 C       1.4314908 *  2.3254997 *  2.6456804 *  3.7480691    4.7054701  
   6 C       0.0000000    1.2482066 *  1.5210233 *  2.3534833 *  3.3957770  
   7 O       1.2482066 *  0.0000000    2.3071136 *  2.3852085 *  3.3523455  
   8 C       1.5210233 *  2.3071136 *  0.0000000    1.4464521 *  2.4962051 *
   9 N       2.3534833 *  2.3852085 *  1.4464521 *  0.0000000    1.4729493 *
  10 C       3.3957770    3.3523455    2.4962051 *  1.4729493 *  0.0000000  
  11 H       3.5604321    3.2378551    3.0968636    2.1167386 *  1.0862126 *
  12 H       3.6276725    3.8970112    2.5786149 *  2.1240916 *  1.0870698 *
  13 H       4.3253648    4.1987696    3.3046096    2.0986426 *  1.0843031 *
  14 H       3.0446376    3.0377653    2.0460358 *  1.0075401 *  2.0661815 *
  15 H       2.1363913 *  2.9890243 *  1.0896639 *  2.1128913 *  3.3058966  
  16 H       2.1579101 *  3.0705388    1.0888951 *  2.1225225 *  2.5774506 *
  17 H       2.6905295 *  3.9308020    2.7353183 *  4.1780341    4.9952756  
  18 H       2.1502339 *  2.5550204 *  3.5787082    4.4852996    5.4187022  
  19 H       5.1310913    5.8796223    6.1508065    7.4079112    8.2690211  
  20 H       1.7834653 *  1.0751029 *  2.0462111 *  1.5053889 *  2.4835419 *

               11 H         12 H         13 H         14 H         15 H     

   1 O       7.4058903    7.2073349    8.3452014    7.0808975    5.3237012  
   2 C       6.9796840    6.4910681    7.7211344    6.4774894    4.5158164  
   3 O       7.7654303    7.0464766    8.3683350    7.1697156    5.0690440  
   4 C       5.5821494    5.0981858    6.2511340    5.0006195    3.1056748  
   5 C       4.8198809    4.7495759    5.6814027    4.4031966    2.9694604 *
   6 C       3.5604321    3.6276725    4.3253648    3.0446376    2.1363913 *
   7 O       3.2378551    3.8970112    4.1987696    3.0377653    2.9890243 *
   8 C       3.0968636    2.5786149 *  3.3046096    2.0460358 *  1.0896639 *
   9 N       2.1167386 *  2.1240916 *  2.0986426 *  1.0075401 *  2.1128913 *
  10 C       1.0862126 *  1.0870698 *  1.0843031 *  2.0661815 *  3.3058966  
  11 H       0.0000000    1.7689796 *  1.7604280 *  2.8319841 *  4.0504468  
  12 H       1.7689796 *  0.0000000    1.7575590 *  2.7552560 *  3.3714762  
  13 H       1.7604280 *  1.7575590 *  0.0000000    2.2064359 *  3.9055454  
  14 H       2.8319841 *  2.7552560 *  2.2064359 *  0.0000000    2.2302855 *
  15 H       4.0504468    3.3714762    3.9055454    2.2302855 *  0.0000000  
  16 H       3.1910956    2.1945238 *  3.4474406    2.8044855 *  1.7590904 *
  17 H       5.4607273    4.6552058    5.8777769    4.6939677    2.6311244 *
  18 H       5.3589050    5.5639289    6.4011291    5.1448292    3.9394841  
  19 H       8.3382410    8.0930391    9.2792323    8.0192003    6.1966030  
  20 H       2.4730342 *  3.2176245    3.2088696    2.1199534 *  2.7749407 *

               16 H         17 H         18 H         19 H         20 H     

   1 O       5.2596952    3.2809060    2.4449419 *  0.9661416 *  5.8503184  
   2 C       4.4193081    2.1573735 *  2.7470855 *  1.8717487 *  5.5879928  
   3 O       4.9488149    2.5335571 *  3.9304579    2.3405749 *  6.5341030  
   4 C       3.0087523    1.0805968 *  2.1140875 *  3.1781693    4.1929785  
   5 C       2.9396260 *  2.1301634 *  1.0798646 *  3.7000353    3.1493806  
   6 C       2.1579101 *  2.6905295 *  2.1502339 *  5.1310913    1.7834653 *
   7 O       3.0705388    3.9308020    2.5550204 *  5.8796223    1.0751029 *
   8 C       1.0888951 *  2.7353183 *  3.5787082    6.1508065    2.0462111 *
   9 N       2.1225225 *  4.1780341    4.4852996    7.4079112    1.5053889 *
  10 C       2.5774506 *  4.9952756    5.4187022    8.2690211    2.4835419 *
  11 H       3.1910956    5.4607273    5.3589050    8.3382410    2.4730342 *
  12 H       2.1945238 *  4.6552058    5.5639289    8.0930391    3.2176245  
  13 H       3.4474406    5.8777769    6.4011291    9.2792323    3.2088696  
  14 H       2.8044855 *  4.6939677    5.1448292    8.0192003    2.1199534 *
  15 H       1.7590904 *  2.6311244 *  3.9394841    6.1966030    2.7749407 *
  16 H       0.0000000    2.4825131 *  3.9376997    6.1265546    2.8782098 *
  17 H       2.4825131 *  0.0000000    3.0905835    4.0112196    4.3411840  
  18 H       3.9376997    3.0905835    0.0000000    3.3798708    3.5701880  
  19 H       6.1265546    4.0112196    3.3798708    0.0000000    6.8163387  
  20 H       2.8782098 *  4.3411840    3.5701880    6.8163387    0.0000000  

  * ... LESS THAN  3.000


     ATOMIC BASIS SET
     ----------------
 THE CONTRACTED PRIMITIVE FUNCTIONS HAVE BEEN UNNORMALIZED
 THE CONTRACTED BASIS FUNCTIONS ARE NOW NORMALIZED TO UNITY

  SHELL TYPE  PRIMITIVE        EXPONENT          CONTRACTION COEFFICIENT(S)

 O         

      1   S       1           130.7093214    0.154328967295
      1   S       2            23.8088661    0.535328142282
      1   S       3             6.4436083    0.444634542185

      2   L       4             5.0331513   -0.099967229187    0.155916274999
      2   L       5             1.1695961    0.399512826089    0.607683718598
      2   L       6             0.3803890    0.700115468880    0.391957393099

 C         

      3   S       7            71.6168373    0.154328967295
      3   S       8            13.0450963    0.535328142282
      3   S       9             3.5305122    0.444634542185

      4   L      10             2.9412494   -0.099967229187    0.155916274999
      4   L      11             0.6834831    0.399512826089    0.607683718598
      4   L      12             0.2222899    0.700115468880    0.391957393099

 O         

      5   S      13           130.7093214    0.154328967295
      5   S      14            23.8088661    0.535328142282
      5   S      15             6.4436083    0.444634542185

      6   L      16             5.0331513   -0.099967229187    0.155916274999
      6   L      17             1.1695961    0.399512826089    0.607683718598
      6   L      18             0.3803890    0.700115468880    0.391957393099

 C         

      7   S      19            71.6168373    0.154328967295
      7   S      20            13.0450963    0.535328142282
      7   S      21             3.5305122    0.444634542185

      8   L      22             2.9412494   -0.099967229187    0.155916274999
      8   L      23             0.6834831    0.399512826089    0.607683718598
      8   L      24             0.2222899    0.700115468880    0.391957393099

 C         

      9   S      25            71.6168373    0.154328967295
      9   S      26            13.0450963    0.535328142282
      9   S      27             3.5305122    0.444634542185

     10   L      28             2.9412494   -0.099967229187    0.155916274999
     10   L      29             0.6834831    0.399512826089    0.607683718598
     10   L      30             0.2222899    0.700115468880    0.391957393099

 C         

     11   S      31            71.6168373    0.154328967295
     11   S      32            13.0450963    0.535328142282
     11   S      33             3.5305122    0.444634542185

     12   L      34             2.9412494   -0.099967229187    0.155916274999
     12   L      35             0.6834831    0.399512826089    0.607683718598
     12   L      36             0.2222899    0.700115468880    0.391957393099

 O         

     13   S      37           130.7093214    0.154328967295
     13   S      38            23.8088661    0.535328142282
     13   S      39             6.4436083    0.444634542185

     14   L      40             5.0331513   -0.099967229187    0.155916274999
     14   L      41             1.1695961    0.399512826089    0.607683718598
     14   L      42             0.3803890    0.700115468880    0.391957393099

 C         

     15   S      43            71.6168373    0.154328967295
     15   S      44            13.0450963    0.535328142282
     15   S      45             3.5305122    0.444634542185

     16   L      46             2.9412494   -0.099967229187    0.155916274999
     16   L      47             0.6834831    0.399512826089    0.607683718598
     16   L      48             0.2222899    0.700115468880    0.391957393099

 N         

     17   S      49            99.1061690    0.154328967295
     17   S      50            18.0523124    0.535328142282
     17   S      51             4.8856602    0.444634542185

     18   L      52             3.7804559   -0.099967229187    0.155916274999
     18   L      53             0.8784966    0.399512826089    0.607683718598
     18   L      54             0.2857144    0.700115468880    0.391957393099

 C         

     19   S      55            71.6168373    0.154328967295
     19   S      56            13.0450963    0.535328142282
     19   S      57             3.5305122    0.444634542185

     20   L      58             2.9412494   -0.099967229187    0.155916274999
     20   L      59             0.6834831    0.399512826089    0.607683718598
     20   L      60             0.2222899    0.700115468880    0.391957393099

 H         

     21   S      61             3.4252509    0.154328967295
     21   S      62             0.6239137    0.535328142282
     21   S      63             0.1688554    0.444634542185

 H         

     22   S      64             3.4252509    0.154328967295
     22   S      65             0.6239137    0.535328142282
     22   S      66             0.1688554    0.444634542185

 H         

     23   S      67             3.4252509    0.154328967295
     23   S      68             0.6239137    0.535328142282
     23   S      69             0.1688554    0.444634542185

 H         

     24   S      70             3.4252509    0.154328967295
     24   S      71             0.6239137    0.535328142282
     24   S      72             0.1688554    0.444634542185

 H         

     25   S      73             3.4252509    0.154328967295
     25   S      74             0.6239137    0.535328142282
     25   S      75             0.1688554    0.444634542185

 H         

     26   S      76             3.4252509    0.154328967295
     26   S      77             0.6239137    0.535328142282
     26   S      78             0.1688554    0.444634542185

 H         

     27   S      79             3.4252509    0.154328967295
     27   S      80             0.6239137    0.535328142282
     27   S      81             0.1688554    0.444634542185

 H         

     28   S      82             3.4252509    0.154328967295
     28   S      83             0.6239137    0.535328142282
     28   S      84             0.1688554    0.444634542185

 H         

     29   S      85             3.4252509    0.154328967295
     29   S      86             0.6239137    0.535328142282
     29   S      87             0.1688554    0.444634542185

 H         

     30   S      88             3.4252509    0.154328967295
     30   S      89             0.6239137    0.535328142282
     30   S      90             0.1688554    0.444634542185

 TOTAL NUMBER OF BASIS SET SHELLS             =   30
 NUMBER OF CARTESIAN GAUSSIAN BASIS FUNCTIONS =   60
 NUMBER OF ELECTRONS                          =   76
 CHARGE OF MOLECULE                           =    1
 SPIN MULTIPLICITY                            =    1
 NUMBER OF OCCUPIED ORBITALS (ALPHA)          =   38
 NUMBER OF OCCUPIED ORBITALS (BETA )          =   38
 TOTAL NUMBER OF ATOMS                        =   20
 THE NUCLEAR REPULSION ENERGY IS      519.3950451040

     $CONTRL OPTIONS
     ---------------
 SCFTYP=RHF          RUNTYP=HESSIAN      EXETYP=RUN     
 MPLEVL=       0     CITYP =NONE         CCTYP =NONE         VBTYP =NONE    
 DFTTYP=NONE         TDDFT =NONE    
 MULT  =       1     ICHARG=       1     NZVAR =       0     COORD =UNIQUE  
 PP    =NONE         RELWFN=NONE         LOCAL =NONE         NUMGRD=       F
 ISPHER=      -1     NOSYM =       0     MAXIT =      30     UNITS =ANGS    
 PLTORB=       F     MOLPLT=       F     AIMPAC=       F     FRIEND=        
 NPRINT=       7     IREST =       0     GEOM  =INPUT   
 NORMF =       0     NORMP =       0     ITOL  =      20     ICUT  =       9
 INTTYP=BEST         GRDTYP=BEST         QMTTOL= 1.0E-06

     $SYSTEM OPTIONS
     ---------------
  REPLICATED MEMORY=     1000000 WORDS (ON EVERY NODE).
 DISTRIBUTED MEMDDI=           0 MILLION WORDS IN AGGREGATE,
 MEMDDI DISTRIBUTED OVER   4 PROCESSORS IS           0 WORDS/PROCESSOR.
 TOTAL MEMORY REQUESTED ON EACH PROCESSOR=     1000000 WORDS.
 TIMLIM=           1.00 MINUTES, OR       0.0 DAYS.
 PARALL= T  BALTYP=  DLB     KDIAG=    0  COREFL= F
 MXSEQ2=     300 MXSEQ3=     150  mem10=         0

          ----------------
          PROPERTIES INPUT
          ----------------

     MOMENTS            FIELD           POTENTIAL          DENSITY
 IEMOM =       1   IEFLD =       0   IEPOT =       0   IEDEN =       0
 WHERE =COMASS     WHERE =NUCLEI     WHERE =NUCLEI     WHERE =NUCLEI  
 OUTPUT=BOTH       OUTPUT=BOTH       OUTPUT=BOTH       OUTPUT=BOTH    
 IEMINT=       0   IEFINT=       0                     IEDINT=       0
                                                       MORB  =       0
          EXTRAPOLATION IN EFFECT
          SOSCF IN EFFECT
 ORBITAL PRINTING OPTION: NPREO=     1    60     2     1

     -------------------------------
     INTEGRAL TRANSFORMATION OPTIONS
     -------------------------------
     NWORD  =            0
     CUTOFF = 1.0E-09     MPTRAN =       0
     DIRTRF =       F     AOINTS =DUP     

          ----------------------
          INTEGRAL INPUT OPTIONS
          ----------------------
 NOPK  =       1 NORDER=       0 SCHWRZ=       T

     ------------------------------------------
     THE POINT GROUP IS C1 , NAXIS= 0, ORDER= 1
     ------------------------------------------

     DIMENSIONS OF THE SYMMETRY SUBSPACES ARE
 A   =   60

 ..... DONE SETTING UP THE RUN .....
 CPU     0: STEP CPU TIME=     0.00 TOTAL CPU TIME=          0.0 (      0.0 MIN)
 TOTAL WALL CLOCK TIME=          0.0 SECONDS, CPU UTILIZATION IS   100.00%

     ---------------------------------
     HESSIAN MATRIX CONTROL PARAMETERS
     ---------------------------------
     METHOD=ANALYTIC   NVIB  =       2   VIBSIZ= 0.01000
     RDHESS=       F   PURIFY=       F   PRTIFC=       F
     VIBANL=       T   DECOMP=       F   PROJCT=       F
     SCLFAC= 1.00000   PRTSCN=       F   NPRT  =       0
     PULCOR=       F   NPUN  =       0   REDOVB=       T
     HSSTYP=GENERAL 
     THERMOCHEMISTRY WILL BE PRINTED FOR    1 TEMPERATURES:
      298.15000
 Old integral subroutine is used

     ------------------------------
     CPHF RESPONSE SOLUTION OPTIONS
     ------------------------------
     POLAR  =       F     NWORD  =       0
     CPHF   =AO      

          ********************
          1 ELECTRON INTEGRALS
          ********************
 ...... END OF ONE-ELECTRON INTEGRALS ......
 CPU     0: STEP CPU TIME=     0.00 TOTAL CPU TIME=          0.0 (      0.0 MIN)
 TOTAL WALL CLOCK TIME=          0.0 SECONDS, CPU UTILIZATION IS     0.00%

          -------------
          GUESS OPTIONS
          -------------
          GUESS =HUCKEL            NORB  =       0          NORDER=       0
          MIX   =       F          PRTMO =       F          PUNMO =       F
          TOLZ  = 1.0E-08          TOLE  = 1.0E-05
          SYMDEN=       F          PURIFY=       F

 INITIAL GUESS ORBITALS GENERATED BY HUCKEL   ROUTINE.
 HUCKEL GUESS REQUIRES     53820 WORDS.

 SYMMETRIES FOR INITIAL GUESS ORBITALS FOLLOW.   BOTH SET(S).
    38 ORBITALS ARE OCCUPIED (   10 CORE ORBITALS).
    11=A       12=A       13=A       14=A       15=A       16=A       17=A   
    18=A       19=A       20=A       21=A       22=A       23=A       24=A   
    25=A       26=A       27=A       28=A       29=A       30=A       31=A   
    32=A       33=A       34=A       35=A       36=A       37=A       38=A   
    39=A       40=A       41=A       42=A       43=A       44=A       45=A   
    46=A       47=A       48=A   
 ...... END OF INITIAL ORBITAL SELECTION ......
 CPU     0: STEP CPU TIME=     0.00 TOTAL CPU TIME=          0.0 (      0.0 MIN)
 TOTAL WALL CLOCK TIME=          0.0 SECONDS, CPU UTILIZATION IS     0.00%

                    ----------------------
                    AO INTEGRAL TECHNOLOGY
                    ----------------------
     S,P,L SHELL ROTATED AXIS INTEGRALS, REPROGRAMMED BY
        KAZUYA ISHIMURA (IMS) AND JOSE SIERRA (SYNSTAR).
     S,P,D,L SHELL ROTATED AXIS INTEGRALS PROGRAMMED BY
        KAZUYA ISHIMURA (INSTITUTE FOR MOLECULAR SCIENCE).
     S,P,D,F,G SHELL TO TOTAL QUARTET ANGULAR MOMENTUM SUM 5,
        ERIC PROGRAM BY GRAHAM FLETCHER (ELORET AND NASA ADVANCED
        SUPERCOMPUTING DIVISION, AMES RESEARCH CENTER).
     S,P,D,F,G,L SHELL GENERAL RYS QUADRATURE PROGRAMMED BY
        MICHEL DUPUIS (PACIFIC NORTHWEST NATIONAL LABORATORY).

          --------------------
          2 ELECTRON INTEGRALS
          --------------------

 THE -PK- OPTION IS OFF, THE INTEGRALS ARE NOT IN SUPERMATRIX FORM.
 STORING   15000 INTEGRALS/RECORD ON DISK, USING 12 BYTES/INTEGRAL.
 TWO ELECTRON INTEGRAL EVALUATION REQUIRES   89821 WORDS OF MEMORY.
 SCHWARZ INEQUALITY OVERHEAD:      1751 INTEGRALS, T=        0.00
 II,JST,KST,LST =  1  1  1  1 NREC =         1 INTLOC =    1
 II,JST,KST,LST =  2  1  1  1 NREC =         1 INTLOC =    1
 II,JST,KST,LST =  3  1  1  1 NREC =         1 INTLOC =    1
 II,JST,KST,LST =  4  1  1  1 NREC =         1 INTLOC =    1
 II,JST,KST,LST =  5  1  1  1 NREC =         1 INTLOC =  297
 II,JST,KST,LST =  6  1  1  1 NREC =         1 INTLOC =  440
 II,JST,KST,LST =  7  1  1  1 NREC =         1 INTLOC = 1279
 II,JST,KST,LST =  8  1  1  1 NREC =         1 INTLOC = 2034
 II,JST,KST,LST =  9  1  1  1 NREC =         1 INTLOC = 8226
 II,JST,KST,LST = 10  1  1  1 NREC =         1 INTLOC = 8226
 II,JST,KST,LST = 11  1  1  1 NREC =         2 INTLOC = 3391
 II,JST,KST,LST = 12  1  1  1 NREC =         2 INTLOC = 3792
 II,JST,KST,LST = 13  1  1  1 NREC =         3 INTLOC = 6619
 II,JST,KST,LST = 14  1  1  1 NREC =         3 INTLOC = 6619
 II,JST,KST,LST = 15  1  1  1 NREC =         4 INTLOC = 8801
 II,JST,KST,LST = 16  1  1  1 NREC =         4 INTLOC =13208
 II,JST,KST,LST = 17  1  1  1 NREC =         7 INTLOC = 2034
 II,JST,KST,LST = 18  1  1  1 NREC =         7 INTLOC = 2034
 II,JST,KST,LST = 19  1  1  1 NREC =         9 INTLOC = 2961
 II,JST,KST,LST = 20  1  1  1 NREC =         9 INTLOC = 4145
 II,JST,KST,LST = 21  1  1  1 NREC =        12 INTLOC = 7662
 II,JST,KST,LST = 22  1  1  1 NREC =        13 INTLOC = 4756
 II,JST,KST,LST = 23  1  1  1 NREC =        14 INTLOC = 2132
 II,JST,KST,LST = 24  1  1  1 NREC =        14 INTLOC =13737
 II,JST,KST,LST = 25  1  1  1 NREC =        15 INTLOC =11383
 II,JST,KST,LST = 26  1  1  1 NREC =        17 INTLOC =  727
 II,JST,KST,LST = 27  1  1  1 NREC =        18 INTLOC = 2950
 II,JST,KST,LST = 28  1  1  1 NREC =        19 INTLOC =14315
 II,JST,KST,LST = 29  1  1  1 NREC =        21 INTLOC =13388
 II,JST,KST,LST = 30  1  1  1 NREC =        23 INTLOC =  697
 SCHWARZ INEQUALITY TEST SKIPPED       51988 INTEGRAL BLOCKS.
 TOTAL NUMBER OF NONZERO TWO-ELECTRON INTEGRALS =              912211
         62 INTEGRAL RECORDS WERE STORED ON DISK FILE  8.
  ...... END OF TWO-ELECTRON INTEGRALS .....
 CPU     0: STEP CPU TIME=     0.05 TOTAL CPU TIME=          0.1 (      0.0 MIN)
 TOTAL WALL CLOCK TIME=          0.1 SECONDS, CPU UTILIZATION IS    83.33%

          --------------------------
                 RHF SCF CALCULATION
          --------------------------

     NUCLEAR ENERGY =       519.3950451040
     MAXIT =   30     NPUNCH=    2
     EXTRAP=T  DAMP=F  SHIFT=F  RSTRCT=F  DIIS=F  DEM=F  SOSCF=T
     DENSITY MATRIX CONV=  1.00E-05
     SOSCF WILL OPTIMIZE     836 ORBITAL ROTATIONS, SOGTOL=   0.250
     MEMORY REQUIRED FOR RHF ITERS=     59384 WORDS.

 ITER EX DEM     TOTAL ENERGY        E CHANGE  DENSITY CHANGE     ORB. GRAD
   1  0  0     -504.3879333189  -504.3879333189   0.629256829   0.000000000
          ---------------START SECOND ORDER SCF---------------
   2  1  0     -505.2103932025    -0.8224598837   0.341699071   0.092391981
   3  2  0     -505.2593761159    -0.0489829134   0.161452411   0.068734064
   4  3  0     -505.2915975427    -0.0322214268   0.027025741   0.005126608
   5  4  0     -505.2925938054    -0.0009962627   0.008326241   0.001712209
   6  5  0     -505.2927197412    -0.0001259358   0.003292081   0.000994551
   7  6  0     -505.2927392037    -0.0000194625   0.000855944   0.000299984
   8  7  0     -505.2927409940    -0.0000017903   0.000518324   0.000103824
   9  8  0     -505.2927412349    -0.0000002408   0.000089406   0.000021178
  10  9  0     -505.2927412517    -0.0000000168   0.000034340   0.000009047
  11 10  0     -505.2927412533    -0.0000000016   0.000007521   0.000003155
  12 11  0     -505.2927412534    -0.0000000001   0.000002183   0.000000743

          -----------------
          DENSITY CONVERGED
          -----------------
     TIME TO FORM FOCK OPERATORS=       0.0 SECONDS (       0.0 SEC/ITER)
     TIME TO SOLVE SCF EQUATIONS=       0.0 SECONDS (       0.0 SEC/ITER)

 FINAL RHF ENERGY IS     -505.2927412534 AFTER  12 ITERATIONS

          ------------
          EIGENVECTORS
          ------------

                      1          2          3          4          5
                  -20.6167   -20.4576   -20.4323   -15.5829   -11.4191
                     A          A          A          A          A   
    1  O  1  S    0.000005   0.994043  -0.001475  -0.000000   0.000002
    2  O  1  S    0.000006   0.027137   0.000196   0.000001  -0.000003
    3  O  1  X   -0.000004   0.003141   0.000529  -0.000000   0.000017
    4  O  1  Y    0.000000  -0.000325  -0.000034  -0.000000  -0.000001
    5  O  1  Z    0.000001   0.003176   0.000097   0.000001   0.000003
    6  C  2  S    0.000001   0.000506   0.000529   0.000001  -0.000045
    7  C  2  S   -0.000019  -0.005213  -0.007796  -0.000011  -0.000070
    8  C  2  X    0.000017  -0.000050  -0.005310   0.000009   0.000060
    9  C  2  Y   -0.000001  -0.000235   0.000490  -0.000001  -0.000004
   10  C  2  Z    0.000000   0.005083  -0.004183  -0.000001   0.000011
   11  O  3  S    0.000001   0.001407   0.994214  -0.000000   0.000001
   12  O  3  S   -0.000001   0.000204   0.026612  -0.000000  -0.000007
   13  O  3  X   -0.000000   0.000336  -0.004827  -0.000000   0.000004
   14  O  3  Y   -0.000000   0.000006   0.000443   0.000000  -0.000000
   15  O  3  Z    0.000002  -0.000535  -0.003752   0.000001   0.000005
   16  C  4  S    0.000006  -0.000022  -0.000028   0.000001  -0.000124
   17  C  4  S    0.000038   0.000401   0.000376   0.000028   0.000133
   18  C  4  X    0.000040   0.000020   0.000368   0.000031   0.000084
   19  C  4  Y    0.000001   0.000017  -0.000039  -0.000001  -0.000004
   20  C  4  Z   -0.000074  -0.000388   0.000404   0.000002  -0.000023
   21  C  5  S   -0.000028  -0.000001   0.000005   0.000005   0.000397
   22  C  5  S    0.000379  -0.000013   0.000049  -0.000035  -0.006214
   23  C  5  X   -0.000373  -0.000173  -0.000025   0.000011   0.003852
   24  C  5  Y    0.000033   0.000012  -0.000002   0.000007  -0.000119
   25  C  5  Z   -0.000382  -0.000104   0.000070  -0.000056  -0.001444
   26  C  6  S    0.000515   0.000003   0.000001  -0.000005   0.992546
   27  C  6  S   -0.006481  -0.000035  -0.000019   0.000392   0.033303
   28  C  6  X    0.004580  -0.000021  -0.000016  -0.000144  -0.000844
   29  C  6  Y   -0.000356   0.000000   0.000001  -0.000006   0.000035
   30  C  6  Z    0.003405   0.000024   0.000001   0.000097  -0.000874
   31  O  7  S    0.994079  -0.000006  -0.000000  -0.000127   0.000177
   32  O  7  S    0.027205   0.000006  -0.000001   0.000930  -0.005491
   33  O  7  X    0.002232   0.000005   0.000000  -0.000616  -0.002146
   34  O  7  Y   -0.000300  -0.000000   0.000000  -0.000006   0.000142
   35  O  7  Z    0.004647  -0.000001  -0.000002   0.000322  -0.000896
   36  C  8  S   -0.000037  -0.000000  -0.000000   0.000499  -0.000978
   37  C  8  S    0.000496  -0.000003  -0.000000  -0.005477  -0.005401
   38  C  8  X   -0.000342   0.000005   0.000004   0.004328  -0.000801
   39  C  8  Y    0.000033  -0.000001  -0.000001  -0.000497  -0.000181
   40  C  8  Z   -0.000434   0.000001  -0.000002  -0.000343   0.003920
   41  N  9  S   -0.000086  -0.000000  -0.000000   0.993259   0.000005
   42  N  9  S    0.000746   0.000001   0.000001   0.032088   0.000312
   43  N  9  X   -0.000161   0.000001   0.000001   0.000945   0.000013
   44  N  9  Y    0.000007  -0.000000  -0.000000  -0.000506  -0.000054
   45  N  9  Z   -0.000800   0.000000   0.000000   0.002155   0.000037
   46  C 10  S   -0.000006  -0.000000   0.000000   0.000487   0.000016
   47  C 10  S   -0.000005   0.000000   0.000000  -0.005122   0.000017
   48  C 10  X    0.000033  -0.000000  -0.000000  -0.001517  -0.000003
   49  C 10  Y   -0.000045   0.000000   0.000000   0.003588   0.000010
   50  C 10  Z   -0.000028   0.000000   0.000000   0.001383  -0.000032
   51  H 11  S    0.000129  -0.000000  -0.000000   0.000221  -0.000007
   52  H 12  S    0.000008  -0.000000  -0.000000   0.000289   0.000003
   53  H 13  S    0.000011  -0.000000  -0.000000   0.000420  -0.000001
   54  H 14  S    0.000091  -0.000000  -0.000000  -0.006653  -0.000029
   55  H 15  S    0.000032   0.000002   0.000003   0.000428  -0.000162
   56  H 16  S    0.000028   0.000003   0.000005   0.000322  -0.000110
   57  H 17  S   -0.000023  -0.000026  -0.000228  -0.000082  -0.000139
   58  H 18  S   -0.000221  -0.000278  -0.000016  -0.000011   0.000008
   59  H 19  S    0.000000  -0.005841  -0.000077  -0.000000  -0.000004
   60  H 20  S   -0.005050  -0.000000  -0.000000  -0.003237  -0.001515

                      6          7          8          9         10
                  -11.3450   -11.3275   -11.2822   -11.2603   -11.2498
                     A          A          A          A          A   
    1  O  1  S    0.000283  -0.000000  -0.000004   0.000000   0.000003
    2  O  1  S   -0.004543   0.000001   0.000272   0.000000   0.000037
    3  O  1  X    0.000419  -0.000002   0.000093   0.000000   0.000064
    4  O  1  Y    0.000090   0.000000  -0.000012  -0.000000  -0.000002
    5  O  1  Z   -0.002428   0.000001   0.000141   0.000000  -0.000025
    6  C  2  S    0.992632   0.000094   0.002461   0.000000   0.000190
    7  C  2  S    0.032244  -0.000028  -0.006081  -0.000000   0.000281
    8  C  2  X   -0.000237   0.000023   0.003889   0.000000  -0.000060
    9  C  2  Y   -0.000010  -0.000002  -0.000147  -0.000000  -0.000003
   10  C  2  Z    0.000469  -0.000011  -0.001382   0.000000   0.000152
   11  O  3  S    0.000059  -0.000000  -0.000024   0.000000   0.000012
   12  O  3  S   -0.005678   0.000001   0.000294  -0.000000  -0.000110
   13  O  3  X    0.001033  -0.000002  -0.000202   0.000000   0.000063
   14  O  3  Y   -0.000096   0.000000   0.000010  -0.000000  -0.000004
   15  O  3  Z    0.000838   0.000002   0.000015   0.000000   0.000009
   16  C  4  S   -0.001460  -0.000216   0.992242   0.000009  -0.010802
   17  C  4  S   -0.006016  -0.000060   0.035644  -0.000000  -0.008316
   18  C  4  X   -0.004019   0.000147  -0.000871   0.000001   0.003832
   19  C  4  Y    0.000153  -0.000002   0.000068   0.000001  -0.000299
   20  C  4  Z    0.001477   0.000032  -0.000782  -0.000002   0.002550
   21  C  5  S   -0.000184  -0.000030   0.011417  -0.000019   0.992044
   22  C  5  S    0.000165   0.000178  -0.007309   0.000001   0.037080
   23  C  5  X   -0.000001   0.000084  -0.003665  -0.000002   0.000172
   24  C  5  Y    0.000003  -0.000014   0.000294  -0.000001  -0.000101
   25  C  5  Z   -0.000074   0.000193  -0.002558  -0.000002   0.001728
   26  C  6  S    0.000056   0.001965   0.000187  -0.000022   0.000504
   27  C  6  S   -0.000051  -0.006082   0.000134   0.000016  -0.007098
   28  C  6  X   -0.000052   0.001202  -0.000105  -0.000016  -0.004249
   29  C  6  Y    0.000003   0.000152   0.000013   0.000023   0.000131
   30  C  6  Z   -0.000019  -0.004316  -0.000183   0.000011   0.001783
   31  O  7  S    0.000001  -0.000036   0.000014  -0.000012  -0.000020
   32  O  7  S   -0.000009   0.000492  -0.000126   0.000069   0.000326
   33  O  7  X   -0.000005  -0.000028  -0.000075  -0.000046   0.000172
   34  O  7  Y    0.000000  -0.000003   0.000004   0.000009  -0.000010
   35  O  7  Z   -0.000006   0.000231  -0.000018   0.000041   0.000030
   36  C  8  S   -0.000090   0.991967   0.000231   0.000936   0.000018
   37  C  8  S   -0.000006   0.037271   0.000028  -0.000109   0.000249
   38  C  8  X   -0.000015   0.000025  -0.000068   0.000171   0.000062
   39  C  8  Y    0.000001  -0.000086  -0.000003  -0.000221   0.000005
   40  C  8  Z   -0.000001  -0.000735   0.000025  -0.000034  -0.000057
   41  N  9  S    0.000001   0.000450   0.000004   0.000501   0.000008
   42  N  9  S   -0.000004  -0.005278  -0.000028  -0.005152  -0.000058
   43  N  9  X   -0.000003  -0.003752  -0.000023   0.001365  -0.000040
   44  N  9  Y    0.000001   0.000429   0.000004  -0.003270   0.000005
   45  N  9  Z    0.000001   0.000045  -0.000003  -0.001353   0.000030
   46  C 10  S   -0.000000  -0.000811  -0.000008   0.992046   0.000020
   47  C 10  S   -0.000000  -0.000165  -0.000001   0.037135  -0.000002
   48  C 10  X    0.000000  -0.000279  -0.000000  -0.000110   0.000001
   49  C 10  Y    0.000000   0.000075   0.000001   0.000054  -0.000000
   50  C 10  Z   -0.000000   0.000080   0.000000   0.000099  -0.000002
   51  H 11  S    0.000000   0.000018  -0.000000  -0.006936   0.000002
   52  H 12  S    0.000000  -0.000030  -0.000001  -0.006927   0.000005
   53  H 13  S    0.000000  -0.000055  -0.000000  -0.006960   0.000001
   54  H 14  S    0.000000  -0.000337  -0.000000  -0.000309   0.000002
   55  H 15  S    0.000001  -0.006942  -0.000003  -0.000055  -0.000069
   56  H 16  S   -0.000000  -0.006887   0.000016  -0.000050  -0.000086
   57  H 17  S   -0.000039  -0.000100  -0.006813   0.000002   0.000227
   58  H 18  S   -0.000207  -0.000018   0.000021   0.000000  -0.006725
   59  H 19  S   -0.001454  -0.000000  -0.000092   0.000000  -0.000027
   60  H 20  S    0.000000  -0.000597  -0.000010  -0.000147  -0.000061

                     11         12         13         14         15
                   -1.6491    -1.5505    -1.4434    -1.3949    -1.2559
                     A          A          A          A          A   
    1  O  1  S   -0.000438  -0.153099  -0.166503   0.000137   0.019846
    2  O  1  S    0.001481   0.535454   0.596501  -0.000501  -0.075996
    3  O  1  X    0.000039   0.059697   0.058989  -0.000168  -0.032121
    4  O  1  Y   -0.000018  -0.007873  -0.005687   0.000010   0.001365
    5  O  1  Z    0.000337   0.096516   0.050514  -0.000020   0.008177
    6  C  2  S   -0.000580  -0.140903   0.034571   0.000002  -0.019078
    7  C  2  S    0.001348   0.314696  -0.074395   0.000022   0.054381
    8  C  2  X   -0.000373   0.080770  -0.110775  -0.000790  -0.081615
    9  C  2  Y    0.000018  -0.003733   0.015449   0.000043   0.003462
   10  C  2  Z    0.000044  -0.016158  -0.198852   0.000042   0.021216
   11  O  3  S   -0.000282  -0.139233   0.165793   0.000405   0.019078
   12  O  3  S    0.000947   0.472846  -0.577036  -0.001429  -0.070165
   13  O  3  X   -0.000255  -0.102900   0.104945   0.000151  -0.004185
   14  O  3  Y    0.000024   0.009852  -0.008903  -0.000019  -0.000439
   15  O  3  Z   -0.000198  -0.088536   0.065694   0.000240   0.013841
   16  C  4  S   -0.002803  -0.025013   0.003581  -0.002118  -0.135128
   17  C  4  S    0.006540   0.060160  -0.011123   0.005187   0.354061
   18  C  4  X   -0.003192   0.029072  -0.010964  -0.001862  -0.084211
   19  C  4  Y    0.000234  -0.000923   0.000870   0.000075   0.006171
   20  C  4  Z   -0.001924  -0.014858  -0.006276   0.000370  -0.049485
   21  C  5  S   -0.015934  -0.007095  -0.003340  -0.000149  -0.164421
   22  C  5  S    0.038189   0.016645   0.007663   0.001974   0.418025
   23  C  5  X   -0.021953   0.008025   0.003461   0.002006   0.010717
   24  C  5  Y    0.000610  -0.000557  -0.000112  -0.000239  -0.004623
   25  C  5  Z    0.010408   0.003476  -0.001203   0.003912   0.086897
   26  C  6  S   -0.111625  -0.000501  -0.000303  -0.004804  -0.099021
   27  C  6  S    0.246456   0.001548   0.000877   0.012096   0.284400
   28  C  6  X   -0.121587   0.002746   0.001017   0.011579   0.140864
   29  C  6  Y    0.008266  -0.000132  -0.000038  -0.003006  -0.008403
   30  C  6  Z   -0.064830  -0.000040  -0.000261   0.074771   0.017020
   31  O  7  S   -0.213881   0.001398   0.000344   0.047118   0.048027
   32  O  7  S    0.749044  -0.005036  -0.001279  -0.179891  -0.192627
   33  O  7  X    0.077460  -0.000090   0.000189  -0.027373   0.069679
   34  O  7  Y   -0.010120   0.000043   0.000002   0.002063  -0.003257
   35  O  7  Z    0.155973  -0.000970  -0.000284   0.001319  -0.016211
   36  C  8  S   -0.025947  -0.000106   0.000056  -0.106950  -0.051201
   37  C  8  S    0.057375   0.000344  -0.000107   0.273554   0.147013
   38  C  8  X   -0.004129   0.000257   0.000094  -0.091099   0.045014
   39  C  8  Y    0.001734  -0.000006  -0.000008   0.011633  -0.002927
   40  C  8  Z   -0.027133  -0.000117  -0.000056  -0.006730  -0.040941
   41  N  9  S   -0.021075   0.000139   0.000168  -0.196007   0.028298
   42  N  9  S    0.062175  -0.000428  -0.000545   0.651540  -0.099944
   43  N  9  X    0.012672  -0.000036  -0.000050   0.050682   0.028924
   44  N  9  Y   -0.001619   0.000005   0.000005  -0.002404  -0.007924
   45  N  9  Z   -0.010899   0.000087   0.000011   0.039880  -0.005683
   46  C 10  S   -0.003814   0.000032   0.000053  -0.073575   0.021228
   47  C 10  S    0.007818  -0.000069  -0.000126   0.180990  -0.056324
   48  C 10  X    0.001653  -0.000012  -0.000022   0.029872  -0.003366
   49  C 10  Y   -0.003123   0.000026   0.000044  -0.060837   0.013753
   50  C 10  Z   -0.001643   0.000015   0.000020  -0.024426   0.005834
   51  H 11  S    0.000564  -0.000006  -0.000017   0.026348  -0.010743
   52  H 12  S    0.000847  -0.000007  -0.000018   0.028897  -0.009661
   53  H 13  S    0.000669  -0.000008  -0.000017   0.026351  -0.011457
   54  H 14  S    0.004720  -0.000040  -0.000078   0.109864  -0.023869
   55  H 15  S    0.005324   0.000058  -0.000015   0.043462   0.035232
   56  H 16  S    0.005211   0.000065  -0.000011   0.044190   0.034967
   57  H 17  S    0.001174   0.007823  -0.005264   0.001501   0.076808
   58  H 18  S    0.004729   0.004705   0.004599  -0.001519   0.076532
   59  H 19  S    0.000160   0.074385   0.099330  -0.000131  -0.027955
   60  H 20  S    0.078359  -0.000677  -0.000287   0.018727  -0.061651

                     16         17         18         19         20
                   -1.1628    -1.0855    -1.0342    -0.9455    -0.9179
                     A          A          A          A          A   
    1  O  1  S   -0.014740  -0.019600   0.009122   0.022829  -0.001550
    2  O  1  S    0.058303   0.079898  -0.038072  -0.098954   0.007224
    3  O  1  X    0.036024   0.066578  -0.037763  -0.132877   0.002270
    4  O  1  Y   -0.001118  -0.001332   0.000441  -0.000214   0.000511
    5  O  1  Z   -0.018286  -0.050298   0.037245   0.163594  -0.016673
    6  C  2  S    0.026049   0.055492  -0.035739  -0.096199   0.012989
    7  C  2  S   -0.075278  -0.164962   0.108789   0.308755  -0.042182
    8  C  2  X    0.084393   0.151626  -0.086817  -0.157172   0.020289
    9  C  2  Y   -0.003832  -0.007188   0.004361   0.009682  -0.001036
   10  C  2  Z   -0.017219  -0.024753   0.012986  -0.020285  -0.005814
   11  O  3  S   -0.018044  -0.034151   0.021666   0.047461  -0.009061
   12  O  3  S    0.068680   0.134771  -0.087975  -0.201560   0.039827
   13  O  3  X    0.011827   0.036287  -0.029453  -0.087534   0.019091
   14  O  3  Y   -0.000040  -0.000988   0.001141   0.005079  -0.001102
   15  O  3  Z   -0.012661  -0.021418   0.011650  -0.004163  -0.000551
   16  C  4  S    0.091971   0.111570  -0.047491   0.002852   0.008448
   17  C  4  S   -0.251530  -0.317999   0.140488   0.001104  -0.026309
   18  C  4  X    0.009452  -0.081458   0.081566   0.261088  -0.035290
   19  C  4  Y   -0.002153   0.004363  -0.004728  -0.014358   0.003087
   20  C  4  Z    0.036543   0.004849   0.032342   0.005528  -0.040215
   21  C  5  S    0.055158  -0.047985   0.067414   0.071658  -0.031682
   22  C  5  S   -0.144620   0.129860  -0.190213  -0.211720   0.088785
   23  C  5  X   -0.082800  -0.179648   0.077486  -0.100866   0.034651
   24  C  5  Y    0.004118   0.010172  -0.003145   0.006679   0.000847
   25  C  5  Z   -0.008819  -0.015744   0.032128  -0.073702  -0.085108
   26  C  6  S   -0.069434  -0.098833   0.013268  -0.060013   0.093925
   27  C  6  S    0.207390   0.309097  -0.040637   0.207523  -0.319289
   28  C  6  X   -0.037779   0.117350  -0.105494  -0.128669   0.108515
   29  C  6  Y   -0.009003   0.003762   0.009700   0.006398  -0.001295
   30  C  6  Z    0.161667  -0.098388   0.159656  -0.165666  -0.191579
   31  O  7  S    0.042383   0.031244  -0.007360   0.025718  -0.080163
   32  O  7  S   -0.177587  -0.138216   0.034659  -0.133637   0.377146
   33  O  7  X    0.035347   0.197016  -0.078586   0.423008  -0.014418
   34  O  7  Y   -0.006974  -0.002483   0.012651  -0.025524   0.009411
   35  O  7  Z    0.049311  -0.043917   0.057149  -0.034312  -0.340060
   36  C  8  S   -0.150117   0.028507  -0.068225  -0.000328  -0.071497
   37  C  8  S    0.437897  -0.081555   0.210780   0.004972   0.241076
   38  C  8  X    0.049414   0.062462   0.121331  -0.023057   0.061031
   39  C  8  Y   -0.015801   0.023814   0.044489  -0.018087  -0.026871
   40  C  8  Z   -0.058783  -0.027786  -0.012310   0.022709   0.341012
   41  N  9  S    0.050354   0.020495   0.086210  -0.010650   0.020620
   42  N  9  S   -0.185396  -0.078186  -0.335403   0.040104  -0.092690
   43  N  9  X    0.147837  -0.076188   0.045553  -0.000023   0.085162
   44  N  9  Y   -0.066049   0.114664   0.198772  -0.048367  -0.030226
   45  N  9  Z   -0.059258   0.067426  -0.022657   0.130420   0.205943
   46  C 10  S    0.101997  -0.114618  -0.133506   0.006580   0.000201
   47  C 10  S   -0.286033   0.336016   0.402270  -0.020669  -0.001467
   48  C 10  X   -0.001840  -0.005109  -0.004378   0.005905   0.037277
   49  C 10  Y    0.038271   0.008886   0.086094  -0.028934   0.003484
   50  C 10  Z    0.012237   0.009117   0.021912   0.027395   0.066862
   51  H 11  S   -0.065267   0.091798   0.136267  -0.030193  -0.033233
   52  H 12  S   -0.060159   0.094581   0.145379  -0.004237   0.044642
   53  H 13  S   -0.070966   0.094943   0.115906   0.002459   0.003481
   54  H 14  S   -0.060425  -0.033399  -0.189998   0.066745   0.013432
   55  H 15  S    0.117526  -0.030867   0.060712   0.008885   0.188273
   56  H 16  S    0.106738  -0.007093   0.113552  -0.010837   0.198836
   57  H 17  S   -0.053757  -0.093849   0.063682  -0.008547  -0.026518
   58  H 18  S   -0.040774   0.040976  -0.073659  -0.040018   0.087280
   59  H 19  S    0.031317   0.061070  -0.037385  -0.145226   0.008167
   60  H 20  S   -0.039627  -0.132423   0.023407  -0.264305  -0.099535

                     21         22         23         24         25
                   -0.8963    -0.8618    -0.8278    -0.7897    -0.7798
                     A          A          A          A          A   
    1  O  1  S   -0.026064  -0.011715   0.017793  -0.015639   0.023772
    2  O  1  S    0.116570   0.054495  -0.085411   0.080824  -0.118655
    3  O  1  X    0.185341   0.068883  -0.041277   0.045746   0.037316
    4  O  1  Y    0.000528   0.005716  -0.001897  -0.000176  -0.030501
    5  O  1  Z   -0.232124  -0.130066   0.207139  -0.198119   0.214710
    6  C  2  S    0.060982   0.031157  -0.054105  -0.022945  -0.019921
    7  C  2  S   -0.208841  -0.108887   0.189322   0.066091   0.076032
    8  C  2  X    0.019321  -0.010191   0.049206  -0.137447   0.153380
    9  C  2  Y   -0.008616   0.002794   0.010485  -0.013770  -0.025572
   10  C  2  Z    0.155823   0.083317  -0.102297   0.254528  -0.166553
   11  O  3  S   -0.008761  -0.010346   0.034043   0.031774   0.017919
   12  O  3  S    0.033693   0.045377  -0.158310  -0.154054  -0.087743
   13  O  3  X   -0.012823   0.000988  -0.047224  -0.216737   0.046731
   14  O  3  Y   -0.002554   0.000584   0.011478   0.001431  -0.008944
   15  O  3  Z    0.067967   0.047077  -0.097874   0.114711  -0.168358
   16  C  4  S   -0.075455  -0.025512   0.024776   0.027323  -0.009967
   17  C  4  S    0.243751   0.082977  -0.073915  -0.077526   0.035939
   18  C  4  X   -0.028732  -0.004802   0.046007   0.311402  -0.135729
   19  C  4  Y   -0.013316   0.019486   0.013339  -0.040668  -0.041680
   20  C  4  Z    0.286681   0.042204   0.135635   0.120461   0.110732
   21  C  5  S    0.068611  -0.001891   0.025778  -0.009354   0.006882
   22  C  5  S   -0.219381   0.007358  -0.090151   0.047122  -0.033532
   23  C  5  X   -0.024919   0.039319  -0.226102  -0.284072  -0.054681
   24  C  5  Y   -0.012179   0.040498   0.044112  -0.011074  -0.081103
   25  C  5  Z    0.182297  -0.035779   0.164217  -0.213098   0.177737
   26  C  6  S   -0.017226   0.013037  -0.025346  -0.005685   0.007602
   27  C  6  S    0.062135  -0.044472   0.087594   0.013289  -0.028795
   28  C  6  X   -0.025749  -0.090810   0.329014   0.228921   0.091414
   29  C  6  Y   -0.021074   0.154426   0.108096  -0.101039  -0.204030
   30  C  6  Z   -0.042588  -0.114137   0.052143  -0.043327  -0.102690
   31  O  7  S   -0.009655   0.010165  -0.030237  -0.001029  -0.013108
   32  O  7  S    0.041357  -0.056724   0.161379   0.015114   0.066369
   33  O  7  X    0.144376   0.175849  -0.210410  -0.180024   0.013257
   34  O  7  Y   -0.028551   0.137794   0.155207  -0.094013  -0.250935
   35  O  7  Z   -0.054699   0.009718  -0.199213  -0.134005  -0.159063
   36  C  8  S    0.011007   0.002329   0.014306  -0.004682   0.006828
   37  C  8  S   -0.037275  -0.000146  -0.049738   0.021657  -0.014460
   38  C  8  X    0.064108  -0.173651   0.163588  -0.060540  -0.263614
   39  C  8  Y   -0.066170   0.331128   0.207406  -0.103355  -0.158230
   40  C  8  Z    0.029269   0.044780   0.014140  -0.017227  -0.007162
   41  N  9  S   -0.003554  -0.024890  -0.019915  -0.007510  -0.010600
   42  N  9  S    0.010483   0.110364   0.085840   0.038055   0.048811
   43  N  9  X   -0.100189   0.246255  -0.159259   0.067702   0.287525
   44  N  9  Y   -0.088574   0.263808   0.106901   0.046507   0.065245
   45  N  9  Z    0.117949  -0.038353   0.016657  -0.174989  -0.075589
   46  C 10  S    0.000423   0.028901   0.023666  -0.003833  -0.007822
   47  C 10  S   -0.002490  -0.089528  -0.076506   0.013952   0.028540
   48  C 10  X   -0.032943   0.183268   0.027158   0.006341   0.145653
   49  C 10  Y   -0.033841  -0.037744  -0.121495   0.076125   0.122878
   50  C 10  Z    0.035711  -0.072821  -0.068015  -0.111251  -0.035120
   51  H 11  S   -0.024017  -0.047586  -0.050218   0.096333   0.052843
   52  H 12  S   -0.013372   0.015092  -0.077328  -0.014225   0.105070
   53  H 13  S    0.031765  -0.150240  -0.054439  -0.055229  -0.108342
   54  H 14  S    0.111799  -0.204571   0.025645  -0.092915  -0.156294
   55  H 15  S    0.046582  -0.226279  -0.113207   0.063080   0.044508
   56  H 16  S   -0.009508   0.115570   0.148885  -0.078100  -0.192992
   57  H 17  S    0.276846   0.057505   0.060663   0.043107   0.090674
   58  H 18  S   -0.185257   0.026936  -0.149126   0.149270  -0.143384
   59  H 19  S    0.205308   0.094871  -0.112833   0.107142  -0.069283
   60  H 20  S   -0.112176  -0.079830   0.087902   0.120207  -0.030142

                     26         27         28         29         30
                   -0.7461    -0.7361    -0.7335    -0.7110    -0.7097
                     A          A          A          A          A   
    1  O  1  S    0.018194  -0.033365  -0.047715   0.009149  -0.006569
    2  O  1  S   -0.087553   0.164145   0.230546  -0.041959   0.030204
    3  O  1  X    0.127079  -0.188241  -0.328081   0.139355  -0.065939
    4  O  1  Y    0.048299  -0.036607   0.082145   0.331379   0.408848
    5  O  1  Z    0.032821  -0.110617  -0.029124  -0.103095   0.108230
    6  C  2  S   -0.029149   0.021861   0.055527  -0.023495   0.016846
    7  C  2  S    0.097573  -0.073286  -0.182869   0.076669  -0.055061
    8  C  2  X    0.086719  -0.187222  -0.202435  -0.026797   0.060236
    9  C  2  Y    0.059512  -0.050000   0.085244   0.324270   0.405008
   10  C  2  Z    0.047810   0.040116  -0.106365   0.173802  -0.097829
   11  O  3  S    0.039297  -0.039501  -0.082841   0.023350  -0.015988
   12  O  3  S   -0.197897   0.201586   0.422236  -0.120976   0.082950
   13  O  3  X   -0.117896   0.045511   0.251629  -0.148372   0.130328
   14  O  3  Y    0.053310  -0.050173   0.016450   0.233084   0.268127
   15  O  3  Z   -0.114655   0.221903   0.296319   0.007635   0.010361
   16  C  4  S    0.005774   0.010151  -0.002578  -0.004221   0.004661
   17  C  4  S   -0.015050  -0.040980   0.004409   0.003404  -0.007347
   18  C  4  X    0.031208   0.068333   0.007869   0.000141   0.015296
   19  C  4  Y    0.066637  -0.050669   0.053087   0.122412   0.110333
   20  C  4  Z    0.053996  -0.074088   0.036140  -0.292506   0.235990
   21  C  5  S   -0.012182   0.009107   0.021369   0.006624  -0.006654
   22  C  5  S    0.045581  -0.032028  -0.079417  -0.036591   0.034919
   23  C  5  X   -0.069534  -0.062909  -0.051574   0.116266  -0.085887
   24  C  5  Y    0.111676  -0.072634   0.075327   0.052064   0.062163
   25  C  5  Z   -0.007500   0.077252   0.088490   0.197981  -0.159522
   26  C  6  S   -0.003173  -0.027831  -0.003721  -0.011386   0.006574
   27  C  6  S    0.009287   0.107427   0.016199   0.053205  -0.033223
   28  C  6  X    0.078268   0.107573   0.101465   0.042953  -0.043944
   29  C  6  Y    0.239294  -0.169424   0.156020  -0.012938  -0.081671
   30  C  6  Z    0.024559   0.120910  -0.022014   0.092150  -0.062766
   31  O  7  S    0.000889  -0.012592  -0.013861  -0.027901   0.023747
   32  O  7  S    0.000680   0.072405   0.072068   0.144203  -0.122391
   33  O  7  X   -0.092688  -0.169071   0.042962   0.032849  -0.054351
   34  O  7  Y    0.353993  -0.252332   0.265262  -0.008333  -0.184391
   35  O  7  Z    0.028777  -0.062235  -0.188966  -0.251103   0.230014
   36  C  8  S    0.002974   0.014250  -0.004541  -0.006142   0.008811
   37  C  8  S   -0.008289  -0.050916   0.021262   0.025253  -0.035159
   38  C  8  X   -0.184236  -0.039501  -0.092291  -0.021858   0.041157
   39  C  8  Y    0.023131   0.105112  -0.084817  -0.076195   0.002873
   40  C  8  Z   -0.046128  -0.110170  -0.034668  -0.105535   0.081008
   41  N  9  S    0.021364   0.006160  -0.004929  -0.007069   0.003455
   42  N  9  S   -0.101710  -0.033322   0.022195   0.030372  -0.013186
   43  N  9  X    0.207565   0.064426   0.084924   0.012848  -0.037482
   44  N  9  Y   -0.331901   0.004155  -0.102177   0.098569   0.040786
   45  N  9  Z    0.023526   0.182034  -0.113443   0.045083   0.012597
   46  C 10  S   -0.008858   0.001258  -0.004349  -0.002678   0.001301
   47  C 10  S    0.021076  -0.004064   0.012387   0.012835  -0.003571
   48  C 10  X    0.001971   0.182850  -0.057651   0.012974   0.062020
   49  C 10  Y    0.215041  -0.093800   0.162242  -0.064620  -0.051242
   50  C 10  Z    0.298041   0.328784  -0.124082  -0.059925   0.076172
   51  H 11  S   -0.051989  -0.282170   0.173230   0.003746  -0.090162
   52  H 12  S    0.227037   0.213120  -0.025292  -0.050870   0.053762
   53  H 13  S    0.113954   0.044915  -0.037286  -0.023635   0.000735
   54  H 14  S    0.109257   0.014986   0.007431  -0.048300  -0.014123
   55  H 15  S   -0.084903  -0.152777   0.040161   0.024252   0.023284
   56  H 16  S   -0.069911  -0.017747  -0.095544  -0.109479   0.054190
   57  H 17  S    0.019576  -0.081174   0.036464  -0.263880   0.203694
   58  H 18  S    0.017377  -0.068010  -0.082402  -0.169020   0.141243
   59  H 19  S    0.056267  -0.060837  -0.174040   0.118746  -0.088278
   60  H 20  S    0.039539   0.012350  -0.036819  -0.103975   0.091880

                     31         32         33         34         35
                   -0.6874    -0.6845    -0.6530    -0.6099    -0.5583
                     A          A          A          A          A   
    1  O  1  S    0.000435  -0.003134  -0.012367   0.075305   0.004009
    2  O  1  S   -0.001545   0.016578   0.063393  -0.397531  -0.021400
    3  O  1  X    0.018765  -0.009824  -0.056047   0.535466   0.035074
    4  O  1  Y    0.055632  -0.034106   0.007756  -0.041451  -0.007070
    5  O  1  Z   -0.027049  -0.034648  -0.051590   0.257716   0.038433
    6  C  2  S   -0.004716  -0.005529  -0.011110  -0.003248  -0.001447
    7  C  2  S    0.016016   0.019372   0.042353   0.016564   0.006787
    8  C  2  X   -0.019684  -0.031046  -0.068229  -0.238725  -0.017609
    9  C  2  Y    0.047461  -0.031202   0.001663   0.021514   0.001315
   10  C  2  Z    0.037607   0.039218   0.070438  -0.173053  -0.013387
   11  O  3  S    0.002538   0.002647   0.002149  -0.043327  -0.002077
   12  O  3  S   -0.013338  -0.013682  -0.010957   0.244797   0.012683
   13  O  3  X   -0.031771  -0.047565  -0.102133   0.417195   0.005226
   14  O  3  Y    0.036040  -0.021387   0.002352  -0.032549  -0.002507
   15  O  3  Z    0.015727   0.027070   0.089673   0.202387   0.049226
   16  C  4  S   -0.000919   0.004466   0.005724  -0.025660   0.006966
   17  C  4  S   -0.000243  -0.019031  -0.027667   0.108346  -0.026001
   18  C  4  X   -0.007355   0.006698  -0.016671   0.234436   0.036349
   19  C  4  Y   -0.004962   0.010504   0.004206  -0.008241  -0.000095
   20  C  4  Z   -0.086787  -0.066633  -0.118580  -0.097252   0.041744
   21  C  5  S    0.002178  -0.002331  -0.013534   0.008145  -0.008777
   22  C  5  S   -0.012211   0.007462   0.040762  -0.025048   0.041584
   23  C  5  X    0.018931  -0.015701  -0.132198  -0.090260  -0.052020
   24  C  5  Y   -0.046617   0.029749  -0.008340   0.005322   0.007993
   25  C  5  Z    0.072578   0.075399   0.279358  -0.030404  -0.023040
   26  C  6  S   -0.003253  -0.012879  -0.000926  -0.010522  -0.022057
   27  C  6  S    0.012054   0.043450  -0.015477   0.039149   0.092279
   28  C  6  X   -0.002863   0.007049   0.130026   0.067241   0.015325
   29  C  6  Y   -0.132386   0.098075   0.001071  -0.001293  -0.006245
   30  C  6  Z   -0.049887  -0.055499  -0.333985  -0.041786   0.149576
   31  O  7  S    0.004920   0.020405   0.038300   0.006319  -0.011393
   32  O  7  S   -0.027075  -0.106315  -0.201573  -0.031759   0.069977
   33  O  7  X    0.031247  -0.021629  -0.041171  -0.029098  -0.264484
   34  O  7  Y   -0.321760   0.216721  -0.035514   0.001486  -0.005798
   35  O  7  Z    0.020263   0.286952   0.436621   0.010962   0.244262
   36  C  8  S    0.007388   0.030261   0.008328   0.000166  -0.000257
   37  C  8  S   -0.032698  -0.121974  -0.032572  -0.000806   0.002389
   38  C  8  X    0.087582   0.159817  -0.118170   0.009987  -0.144960
   39  C  8  Y    0.291750  -0.236699   0.006681  -0.002425   0.022864
   40  C  8  Z    0.067876   0.111708   0.357488   0.022760   0.004057
   41  N  9  S    0.003628   0.000108   0.004429  -0.001654   0.043136
   42  N  9  S   -0.021663   0.000867  -0.014013   0.009834  -0.231262
   43  N  9  X   -0.077119  -0.192049   0.148346  -0.010906   0.217329
   44  N  9  Y   -0.335011   0.077574   0.021495   0.001044   0.003188
   45  N  9  Z   -0.071824   0.091966  -0.064308  -0.051619   0.750716
   46  C 10  S    0.009507  -0.002014   0.003471   0.000816  -0.007695
   47  C 10  S   -0.043382   0.011007  -0.014061  -0.003157   0.028973
   48  C 10  X    0.054837   0.446723  -0.197505   0.001062  -0.040389
   49  C 10  Y    0.353155   0.063748  -0.049262  -0.002506  -0.010119
   50  C 10  Z   -0.138164  -0.070229   0.055677   0.026223  -0.227357
   51  H 11  S    0.247343  -0.023120  -0.018322  -0.023661   0.237897
   52  H 12  S    0.115049   0.262272  -0.117437   0.015857  -0.198879
   53  H 13  S   -0.176255  -0.352779   0.176152   0.013401  -0.096322
   54  H 14  S    0.241706   0.059624  -0.111391  -0.011157   0.091754
   55  H 15  S   -0.213528   0.227666   0.075611   0.012513  -0.088521
   56  H 16  S    0.269385  -0.068172   0.100568   0.013998  -0.110375
   57  H 17  S   -0.075072  -0.066929  -0.138661  -0.061250   0.017105
   58  H 18  S   -0.068066  -0.063742  -0.241916  -0.040202   0.038989
   59  H 19  S    0.021411   0.008041  -0.015789   0.268807   0.009734
   60  H 20  S    0.009889   0.083839   0.188166   0.043521  -0.075236

                     36         37         38         39         40
                   -0.5423    -0.5053    -0.4908    -0.0605     0.1213
                     A          A          A          A          A   
    1  O  1  S    0.000077   0.002369  -0.000000  -0.000107   0.000047
    2  O  1  S   -0.000381  -0.008949   0.000021   0.000609  -0.000289
    3  O  1  X   -0.026756   0.163532   0.034857   0.004981   0.011333
    4  O  1  Y   -0.483667  -0.028094   0.616767   0.090667   0.203423
    5  O  1  Z   -0.023364   0.368266   0.029721   0.004800   0.009302
    6  C  2  S   -0.000092   0.002349  -0.000010   0.000074  -0.000252
    7  C  2  S    0.000328   0.004579   0.000077  -0.000303   0.001279
    8  C  2  X    0.000096   0.056961  -0.015510  -0.005736  -0.026199
    9  C  2  Y    0.006733   0.000129  -0.282512  -0.110213  -0.451762
   10  C  2  Z    0.000789  -0.055593  -0.013214  -0.005065  -0.020710
   11  O  3  S    0.000030  -0.001316   0.000011   0.000041   0.000038
   12  O  3  S   -0.000172   0.004978  -0.000075  -0.000235  -0.000185
   13  O  3  X    0.004187  -0.520512  -0.035175   0.015578   0.025994
   14  O  3  Y    0.082658  -0.002045  -0.607592   0.266652   0.455693
   15  O  3  Z    0.003357   0.697732  -0.026617   0.012460   0.021042
   16  C  4  S   -0.000140   0.037100   0.000046  -0.000181   0.000530
   17  C  4  S    0.000611  -0.169459  -0.000140   0.000879  -0.002731
   18  C  4  X    0.024945  -0.246004   0.008276  -0.029909  -0.015271
   19  C  4  Y    0.478160   0.008156   0.169427  -0.572646  -0.293695
   20  C  4  Z    0.019144   0.099647   0.007497  -0.022464  -0.013985
   21  C  5  S   -0.000082  -0.016499  -0.000112  -0.000035  -0.000283
   22  C  5  S    0.000310   0.063096   0.000465   0.000223   0.001434
   23  C  5  X    0.027134   0.078517   0.014689   0.011351   0.029209
   24  C  5  Y    0.548853  -0.004169   0.300023   0.228987   0.611369
   25  C  5  Z    0.023688  -0.000903   0.012221   0.009416   0.025365
   26  C  6  S    0.000154   0.015253   0.000072  -0.000069   0.000437
   27  C  6  S   -0.000675  -0.063496  -0.000318   0.000482  -0.002604
   28  C  6  X    0.002686  -0.071703   0.002200   0.029862  -0.026961
   29  C  6  Y    0.046644   0.002142   0.048829   0.648576  -0.577659
   30  C  6  Z    0.000142   0.025320   0.001845   0.028130  -0.025369
   31  O  7  S    0.000133  -0.003543   0.000020  -0.000004  -0.000044
   32  O  7  S   -0.000809   0.017051  -0.000132  -0.000001   0.000271
   33  O  7  X   -0.012913   0.043832  -0.007205  -0.023236   0.015340
   34  O  7  Y   -0.321026  -0.000269  -0.160412  -0.489416   0.303667
   35  O  7  Z   -0.015725  -0.023779  -0.007277  -0.021021   0.013137
   36  C  8  S    0.000075  -0.000881  -0.000002  -0.000282  -0.000181
   37  C  8  S   -0.000241   0.003474   0.000043   0.001293   0.001662
   38  C  8  X   -0.002011   0.009381  -0.001591  -0.002644  -0.001363
   39  C  8  Y   -0.034604  -0.000690  -0.019060  -0.006414  -0.069120
   40  C  8  Z   -0.002273  -0.020586  -0.001414   0.002191  -0.007267
   41  N  9  S   -0.000472  -0.002254   0.000004   0.001947  -0.002445
   42  N  9  S    0.002656   0.011796   0.000090  -0.010991   0.015529
   43  N  9  X   -0.003726  -0.015653  -0.001559  -0.009402   0.008130
   44  N  9  Y    0.013472  -0.000084   0.005589   0.006124  -0.016118
   45  N  9  Z   -0.006259  -0.032652  -0.000992  -0.004689   0.006811
   46  C 10  S   -0.001693  -0.000031  -0.000930  -0.001944  -0.000344
   47  C 10  S    0.007331   0.000277   0.004050   0.009725   0.001242
   48  C 10  X    0.008187   0.003703   0.003946   0.008014  -0.005019
   49  C 10  Y   -0.009462   0.000123  -0.004227   0.000552  -0.016044
   50  C 10  Z   -0.002684   0.005591  -0.001612   0.002162  -0.007923
   51  H 11  S   -0.006195  -0.008691  -0.002328  -0.006014   0.005234
   52  H 12  S    0.001246   0.008521   0.000431   0.001274   0.003166
   53  H 13  S   -0.004154   0.000738  -0.002267  -0.002857  -0.003393
   54  H 14  S   -0.012759  -0.000086  -0.005501   0.003823  -0.027349
   55  H 15  S    0.023133   0.000753   0.015175   0.137944  -0.165371
   56  H 16  S   -0.018178   0.002014  -0.012993  -0.125120   0.149071
   57  H 17  S   -0.000774   0.057559   0.000272   0.000037   0.001835
   58  H 18  S   -0.000984   0.045866   0.000032   0.000354  -0.001113
   59  H 19  S    0.000506  -0.042457  -0.000094  -0.000476   0.000274
   60  H 20  S    0.001229  -0.024250   0.000262  -0.000177   0.000755

                     41         42         43         44         45
                    0.2508     0.3347     0.3529     0.3801     0.3982
                     A          A          A          A          A   
    1  O  1  S    0.000002   0.011145  -0.005845  -0.008262  -0.011942
    2  O  1  S   -0.000010  -0.069709   0.036410   0.053956   0.078572
    3  O  1  X   -0.014608  -0.027414   0.012777   0.025137   0.042560
    4  O  1  Y   -0.262687   0.001711  -0.002812   0.001697  -0.009002
    5  O  1  Z   -0.011968  -0.011022  -0.007577   0.016831   0.030064
    6  C  2  S   -0.000425  -0.006211   0.032962   0.044174   0.034488
    7  C  2  S    0.002397   0.032974  -0.195883  -0.262634  -0.203187
    8  C  2  X    0.038576  -0.022155   0.127551   0.168612   0.128288
    9  C  2  Y    0.728453   0.003618   0.004465  -0.017128   0.011356
   10  C  2  Z    0.035611  -0.022097  -0.088989  -0.092761  -0.036454
   11  O  3  S    0.000125  -0.000086  -0.007580  -0.008269  -0.005055
   12  O  3  S   -0.000750   0.003125   0.047207   0.050653   0.029115
   13  O  3  X   -0.026614  -0.008003  -0.088324  -0.094065  -0.052438
   14  O  3  Y   -0.509083  -0.000267   0.000845   0.011362  -0.005277
   15  O  3  Z   -0.023997   0.000159  -0.000731  -0.000829  -0.003205
   16  C  4  S    0.000654   0.022213  -0.020243  -0.014237  -0.014299
   17  C  4  S   -0.003749  -0.142526   0.122678   0.071644   0.074035
   18  C  4  X   -0.032194   0.017278   0.044182   0.160034   0.143573
   19  C  4  Y   -0.615342  -0.002049  -0.003892   0.028633  -0.040499
   20  C  4  Z   -0.024730  -0.042102  -0.256948  -0.232541  -0.102881
   21  C  5  S   -0.000675   0.057662   0.011360   0.050679   0.038309
   22  C  5  S    0.003828  -0.343979  -0.080055  -0.300677  -0.222838
   23  C  5  X    0.023147   0.270191   0.085980   0.304826   0.232230
   24  C  5  Y    0.475659  -0.005319   0.029400  -0.067668   0.072992
   25  C  5  Z    0.021697   0.032601  -0.265089  -0.200868  -0.078831
   26  C  6  S    0.000597  -0.050379   0.020203  -0.129554  -0.117790
   27  C  6  S   -0.003586   0.313392  -0.122769   0.789725   0.724790
   28  C  6  X   -0.011744   0.299611   0.113439   0.075017  -0.005860
   29  C  6  Y   -0.232459  -0.039178  -0.019621   0.103710  -0.163474
   30  C  6  Z   -0.008266   0.295968  -0.492413   0.116649   0.227070
   31  O  7  S   -0.000302  -0.019382   0.063756   0.056641   0.026616
   32  O  7  S    0.001935   0.140977  -0.415444  -0.368338  -0.173873
   33  O  7  X    0.005929   0.180574   0.221928   0.020628  -0.096558
   34  O  7  Y    0.098364  -0.011460   0.010606  -0.023188   0.059710
   35  O  7  Z    0.005226   0.095641  -0.239389  -0.305493  -0.172362
   36  C  8  S   -0.000696   0.069849  -0.011894   0.021213   0.050821
   37  C  8  S    0.004709  -0.366798   0.078652  -0.122534  -0.316634
   38  C  8  X   -0.002509   0.591000   0.405830  -0.325672  -0.363318
   39  C  8  Y   -0.070925  -0.015369   0.132072  -0.395000   0.506608
   40  C  8  Z   -0.003627   0.384860  -0.447471   0.407466   0.478364
   41  N  9  S   -0.001741  -0.148340   0.029648   0.028732   0.053824
   42  N  9  S    0.012205   0.953556  -0.176504  -0.149831  -0.371177
   43  N  9  X    0.001356   0.255679   0.362287  -0.183059  -0.082888
   44  N  9  Y   -0.023997   0.074056   0.094554  -0.339990   0.452292
   45  N  9  Z    0.004779   0.175873   0.251206   0.117687  -0.145897
   46  C 10  S   -0.001671   0.045638   0.004309  -0.019945   0.035977
   47  C 10  S    0.008514  -0.233647  -0.028517   0.103748  -0.206839
   48  C 10  X   -0.003486  -0.097339   0.215542  -0.088858   0.040445
   49  C 10  Y   -0.021403   0.442129  -0.005192  -0.363440   0.263417
   50  C 10  Z   -0.007657   0.294877   0.136016  -0.004546  -0.084752
   51  H 11  S    0.003747   0.085809   0.173429   0.133005  -0.138673
   52  H 12  S    0.006826  -0.157761  -0.241016   0.164321   0.003278
   53  H 13  S   -0.008131   0.017562   0.115510  -0.221055   0.236662
   54  H 14  S   -0.034203  -0.390143   0.263498  -0.412594   0.586252
   55  H 15  S   -0.104420  -0.096137   0.127850  -0.371775   0.498894
   56  H 16  S    0.090133  -0.265914  -0.102285   0.280752  -0.306569
   57  H 17  S   -0.000573   0.112482   0.204667   0.234874   0.093790
   58  H 18  S    0.000260   0.257773  -0.300946  -0.063221   0.037545
   59  H 19  S    0.000311   0.069650  -0.049382  -0.063231  -0.084294
   60  H 20  S   -0.001000   0.035895   0.759816   0.436321   0.058434

                     46         47         48         49         50
                    0.4129     0.4272     0.4472     0.5046     0.5296
                     A          A          A          A          A   
    1  O  1  S    0.064199   0.081924  -0.044591   0.028622   0.032286
    2  O  1  S   -0.418449  -0.540590   0.296381  -0.194980  -0.222828
    3  O  1  X   -0.257446  -0.365213   0.221659  -0.221175  -0.323384
    4  O  1  Y    0.018630   0.027414  -0.014073   0.011060   0.012524
    5  O  1  Z   -0.079312  -0.151172   0.063203   0.026709   0.123171
    6  C  2  S   -0.096578  -0.048062   0.043693   0.021507   0.069922
    7  C  2  S    0.566530   0.254297  -0.252614  -0.138588  -0.433391
    8  C  2  X   -0.323894  -0.121069   0.118731   0.109391   0.260259
    9  C  2  Y    0.016409   0.020186  -0.014578   0.001115  -0.003977
   10  C  2  Z    0.009223  -0.278407   0.084069  -0.153701  -0.233140
   11  O  3  S    0.012996  -0.003085  -0.003817  -0.006078  -0.016507
   12  O  3  S   -0.069893   0.041343   0.015073   0.044370   0.111542
   13  O  3  X    0.100184  -0.103942  -0.001670  -0.093955  -0.193849
   14  O  3  Y   -0.006367   0.004134   0.003172   0.004337   0.010069
   15  O  3  Z    0.029816   0.026068  -0.027817   0.020263   0.017888
   16  C  4  S    0.042421   0.106234  -0.014905  -0.034274  -0.160465
   17  C  4  S   -0.253861  -0.657853   0.078061   0.223992   1.048550
   18  C  4  X   -0.396260  -0.070693   0.216165   0.041898  -0.051341
   19  C  4  Y    0.010027   0.023611   0.002009  -0.001833   0.003336
   20  C  4  Z    0.294235  -0.444155  -0.045317  -0.028323   0.055711
   21  C  5  S    0.053664  -0.017424   0.021189   0.010201   0.126792
   22  C  5  S   -0.334690   0.091227  -0.127467  -0.070293  -0.819392
   23  C  5  X   -0.027498   0.150674   0.161755  -0.000447  -0.127960
   24  C  5  Y   -0.017545  -0.007165  -0.039637   0.013244  -0.006021
   25  C  5  Z    0.365107  -0.187750   0.026356  -0.148428  -0.093519
   26  C  6  S   -0.000178  -0.025521  -0.014338   0.018077  -0.052437
   27  C  6  S   -0.004495   0.165702   0.099921  -0.104890   0.328645
   28  C  6  X    0.000846   0.099861   0.255625   0.159127   0.062945
   29  C  6  Y   -0.002700   0.016529   0.047605  -0.019242   0.056445
   30  C  6  Z    0.221968  -0.091297   0.164683  -0.131165  -0.342049
   31  O  7  S    0.022786  -0.018452  -0.038024  -0.010409   0.020111
   32  O  7  S   -0.138740   0.118317   0.262273   0.072710  -0.144592
   33  O  7  X    0.338033  -0.223514   0.009840   0.019595  -0.282877
   34  O  7  Y   -0.010921   0.000078  -0.028566   0.001681   0.001223
   35  O  7  Z   -0.161061   0.120811   0.194485   0.095858  -0.020630
   36  C  8  S    0.025839   0.045280   0.057569  -0.193827   0.037526
   37  C  8  S   -0.156485  -0.274992  -0.334166   1.229244  -0.237050
   38  C  8  X   -0.071600  -0.051568   0.250905   0.233359   0.023893
   39  C  8  Y   -0.038843  -0.059574  -0.303153   0.026761  -0.194729
   40  C  8  Z    0.165909  -0.137291   0.099669   0.411689  -0.262703
   41  N  9  S    0.070409  -0.010198   0.027079   0.052640  -0.033194
   42  N  9  S   -0.445008   0.049224  -0.191485  -0.337268   0.210490
   43  N  9  X    0.179376   0.120249   0.535792  -0.180369   0.074840
   44  N  9  Y   -0.058924  -0.026822  -0.231625  -0.042134   0.090559
   45  N  9  Z   -0.026019  -0.135153  -0.356074  -0.142829   0.097291
   46  C 10  S   -0.016061  -0.009413  -0.052544  -0.058378   0.018029
   47  C 10  S    0.075250   0.050871   0.283476   0.357078  -0.104541
   48  C 10  X    0.235331   0.052824   0.541424   0.096132  -0.112269
   49  C 10  Y   -0.245765  -0.004566  -0.213490   0.060104   0.217480
   50  C 10  Z   -0.073254  -0.152873  -0.381565  -0.149640  -0.254470
   51  H 11  S    0.091007  -0.119574  -0.166652  -0.293366  -0.280784
   52  H 12  S   -0.082965   0.008100  -0.252472  -0.109603   0.147881
   53  H 13  S    0.129840   0.111321   0.476696  -0.009228   0.156199
   54  H 14  S    0.244128   0.071459   0.299172   0.130709  -0.024659
   55  H 15  S   -0.021768   0.113201  -0.214628  -0.719622   0.047648
   56  H 16  S    0.045149   0.226897   0.218112  -0.851815   0.359320
   57  H 17  S   -0.185350   0.806095  -0.015470  -0.024672  -0.572981
   58  H 18  S    0.585030  -0.297401   0.111271  -0.118887   0.317731
   59  H 19  S    0.474936   0.590940  -0.347955   0.295417   0.418590
   60  H 20  S    0.485021  -0.357841  -0.283839  -0.018112  -0.113064

                     51         52         53         54         55
                    0.5408     0.5510     0.5753     0.5863     0.6035
                     A          A          A          A          A   
    1  O  1  S    0.012551  -0.007964   0.006214  -0.023775  -0.011145
    2  O  1  S   -0.087907   0.057354  -0.033257   0.152215   0.074972
    3  O  1  X   -0.162671   0.117717   0.278149  -0.253072  -0.005979
    4  O  1  Y    0.003865  -0.004658   0.002642  -0.011702  -0.005722
    5  O  1  Z    0.090317  -0.050982  -0.395245   0.549978   0.140350
    6  C  2  S    0.042795   0.009532  -0.077944   0.094735   0.044393
    7  C  2  S   -0.266506  -0.062591   0.477857  -0.577727  -0.280150
    8  C  2  X    0.134129   0.034993  -0.001382  -0.132989  -0.023173
    9  C  2  Y    0.000457   0.002338   0.010199  -0.009871  -0.002158
   10  C  2  Z   -0.097968  -0.050876  -0.185097   0.369477   0.047310
   11  O  3  S   -0.009359  -0.004014   0.014395  -0.019800  -0.013543
   12  O  3  S    0.063013   0.026997  -0.094936   0.131055   0.093057
   13  O  3  X   -0.099930  -0.034058   0.069282  -0.057198  -0.076842
   14  O  3  Y    0.004601   0.001605  -0.009875   0.012644   0.008511
   15  O  3  Z   -0.004808  -0.008020   0.116118  -0.201749  -0.085488
   16  C  4  S   -0.056675   0.005864  -0.001297   0.024765   0.006043
   17  C  4  S    0.367531  -0.054278   0.016943  -0.182008  -0.058156
   18  C  4  X    0.085697   0.054078  -0.305706   0.295045   0.127802
   19  C  4  Y   -0.016270  -0.001203   0.018560  -0.023552   0.008039
   20  C  4  Z   -0.009424  -0.202905  -0.144533   0.146975  -0.174962
   21  C  5  S    0.037864   0.076448   0.079022  -0.073276   0.036163
   22  C  5  S   -0.242501  -0.515424  -0.538742   0.504688  -0.248268
   23  C  5  X   -0.014538   0.183785  -0.025322   0.114990   0.066805
   24  C  5  Y    0.042394   0.010506   0.007329   0.001192  -0.046559
   25  C  5  Z   -0.029717   0.170379   0.052963   0.049571   0.199650
   26  C  6  S   -0.021608   0.034137  -0.037652   0.025681   0.024250
   27  C  6  S    0.141445  -0.209900   0.238191  -0.166176  -0.154565
   28  C  6  X    0.066313   0.584048   0.002010  -0.005508   0.309462
   29  C  6  Y   -0.102295  -0.087681  -0.010642  -0.037754   0.082882
   30  C  6  Z   -0.046314  -0.115480  -0.253760   0.252544  -0.027216
   31  O  7  S   -0.017052  -0.036833   0.021863  -0.005399  -0.027840
[...]
                   Z -0.01876298  0.02832246 -0.07274676  0.00549747  0.03669321
 20   H            X -0.03585898  0.05998421  0.09078795  0.20535686 -0.00021863
                   Y  0.06001897 -0.06823014 -0.01323844 -0.01899859  0.00041496
                   Z -0.11018737  0.19047516  0.10915259  0.26793796 -0.00289005

 TRANS. SAYVETZ    X -0.00000023  0.00000069  0.00000259 -0.00000056  0.00000432
                   Y  0.00000081 -0.00000106  0.00000157  0.00000166  0.00000026
                   Z -0.00000054  0.00000163  0.00000278  0.00000222 -0.00000014
               TOTAL  0.00000100  0.00000207  0.00000411  0.00000282  0.00000434

   ROT. SAYVETZ    X  0.02716098 -0.04314316 -0.00242980 -0.00023125 -0.00163521
                   Y  0.00708221 -0.01157504 -0.01960557  0.02156748 -0.02920149
                   Z -0.00399969 -0.02999237 -0.00031459  0.00698822 -0.00122608
               TOTAL  0.02835267  0.05380387  0.01975807  0.02267256  0.02927293

                           51          52          53          54          55
       FREQUENCY:      2941.71     3602.63     3630.28     3733.51     3766.92  
        SYMMETRY:         A           A           A           A           A   
    REDUCED MASS:      1.06956     1.04124     1.06837     1.10970     1.09221
    IR INTENSITY:     32.31136     0.01353     0.33828     0.44591     2.07944

  1   O            X  0.00018550 -0.00000086  0.00002409  0.00000202 -0.00000649
                   Y  0.00001341  0.00000020 -0.00000045 -0.00000462  0.00000120
                   Z -0.00045996  0.00000168 -0.00002232 -0.00000311 -0.00002502
  2   C            X -0.00079215  0.00000503 -0.00014360  0.00002927 -0.00124218
                   Y -0.00003742  0.00000007 -0.00000209  0.00004867  0.00003829
                   Z  0.00175060 -0.00000843  0.00011553 -0.00000304  0.00067046
  3   O            X  0.00022401 -0.00000111  0.00003523 -0.00000443  0.00002671
                   Y  0.00000917 -0.00000007 -0.00000007 -0.00000812  0.00000506
                   Z -0.00044171  0.00000243 -0.00002956 -0.00000193 -0.00014276
  4   C            X -0.00353254  0.00001800 -0.00014397 -0.00003206  0.00390498
                   Y  0.00035660 -0.00000301  0.00006046  0.00005690  0.00091042
                   Z -0.00415080  0.00004730 -0.00126111  0.00077362 -0.02681272
  5   C            X  0.01444275 -0.00006828  0.00069602 -0.00005894  0.00614297
                   Y -0.00081925  0.00000251 -0.00005126 -0.00006414  0.00293021
                   Z  0.00298576 -0.00001039  0.00008947  0.00022035 -0.07890824
  6   C            X -0.04440405  0.00008070 -0.00006875  0.00001322 -0.00346832
                   Y  0.00262990 -0.00000223  0.00002533  0.00032867  0.00006892
                   Z -0.00977312 -0.00009557 -0.00043705  0.00027779  0.00229938
  7   O            X -0.02822244  0.00041482 -0.00112802  0.00003085  0.00038858
                   Y -0.00015939 -0.00001992  0.00004841 -0.00051429 -0.00001078
                   Z  0.03404950 -0.00031538 -0.00057320  0.00000956 -0.00027480
  8   C            X  0.00594187 -0.00089310  0.04714538 -0.01297273 -0.00059876
                   Y -0.00075588  0.00025290 -0.01332778 -0.08991177 -0.00045467
                   Z -0.00344598 -0.00021859  0.05237486 -0.00968789 -0.00027732
  9   N            X -0.00695620 -0.00127453 -0.00214568  0.00003348  0.00002180
                   Y -0.00272734  0.00209936  0.00102273  0.00112925 -0.00001127
                   Z -0.01018177  0.00030548  0.00004405 -0.00017508 -0.00002299
 10   C            X -0.00223677  0.01347270  0.00009181  0.00138912  0.00046524
                   Y  0.00305241 -0.04857996 -0.00073811  0.00069079  0.00000383
                   Z  0.00262517 -0.01922620 -0.00033807  0.00025278  0.00037826
 11   H            X  0.00164123 -0.16212697 -0.00288777  0.00015860 -0.00100842
                   Y  0.00007951  0.34910684  0.00656823 -0.00034228  0.00224571
                   Z -0.01009838 -0.42075827 -0.00724928  0.00057759 -0.00267756
 12   H            X  0.01086937  0.42202711  0.00387811 -0.00954859 -0.00326668
                   Y -0.00113201  0.28347251  0.00191430 -0.00608251 -0.00208630
                   Z  0.00332183  0.34778943  0.00294779 -0.00776635 -0.00259665
 13   H            X -0.00295176 -0.40041787 -0.00751397 -0.00735422 -0.00121970
                   Y -0.00440835 -0.09609039 -0.00209408 -0.00112557 -0.00025127
                   Z  0.00255534  0.28795632  0.00500825  0.00573646  0.00092580
 14   H            X  0.00763718 -0.00112190 -0.00695437  0.00180871  0.00005432
                   Y  0.01765977  0.00603992 -0.00408198 -0.00425879  0.00015554
                   Z -0.00139785  0.00261247  0.00261422  0.00018475  0.00003371
 15   H            X -0.01381742  0.00249363 -0.19443809 -0.17898117  0.00017720
                   Y -0.00823047 -0.00592512  0.62274493  0.57320951  0.00072617
                   Z  0.01605312  0.00254576 -0.25861980 -0.24187711 -0.00027297
 16   H            X -0.01350341  0.00748943 -0.31961677  0.33147217  0.00403780
                   Y  0.01020974  0.00868319 -0.47278339  0.48919253  0.00478940
                   Z  0.01838293  0.00620540 -0.33474938  0.35231431  0.00349317
 17   H            X  0.00098847 -0.00000183 -0.00016216  0.00023256 -0.01119560
                   Y -0.00010429  0.00001680 -0.00045639  0.00015605 -0.01342566
                   Z -0.00138212 -0.00024961  0.00933213 -0.00820580  0.33896576
 18   H            X -0.00668854 -0.00000058 -0.00023080  0.00020174 -0.05667046
                   Y  0.00019784 -0.00000476 -0.00008125 -0.00028687 -0.03342316
                   Z  0.00106626  0.00000924  0.00130453 -0.00317734  0.88820883
 19   H            X  0.00065091 -0.00000498  0.00004414  0.00000682  0.00092403
                   Y -0.00005785 -0.00000169  0.00000520  0.00002742 -0.00005784
                   Z -0.00007448 -0.00000112 -0.00002017 -0.00000567  0.00016383
 20   H            X  0.91735603 -0.00738477  0.00816594 -0.00041148 -0.00058598
                   Y -0.02685147  0.00130198  0.00038872  0.00011678 -0.00008326
                   Z -0.29387145  0.00691103 -0.01307316  0.00181592  0.00333716

 TRANS. SAYVETZ    X -0.00000263  0.00000016  0.00000044  0.00000004 -0.00000047
                   Y  0.00000046  0.00000076  0.00000052 -0.00000002 -0.00000084
                   Z -0.00000194  0.00000045  0.00000111  0.00000004 -0.00000058
               TOTAL  0.00000330  0.00000090  0.00000130  0.00000006  0.00000113

   ROT. SAYVETZ    X  0.00179001 -0.00035740  0.00067321 -0.00763913 -0.00043828
                   Y -0.02328878 -0.00247046 -0.00189790  0.00162925 -0.00547088
                   Z  0.00435750 -0.00080798  0.00127482  0.00420660 -0.00021005
               TOTAL  0.02376046  0.00262369  0.00238336  0.00887166  0.00549242

                           56          57          58          59          60
       FREQUENCY:      3770.31     3790.00     3791.13     4274.76     4531.18  
        SYMMETRY:         A           A           A           A           A   
    REDUCED MASS:      1.11050     1.11047     1.10375     1.07966     1.06724
    IR INTENSITY:      0.02068     0.12112     0.16196     0.88098     0.37420

  1   O            X  0.00000016  0.00000724 -0.00042882  0.00000595 -0.05639752
                   Y -0.00000003 -0.00000012  0.00000955 -0.00000067  0.00209002
                   Z -0.00000170 -0.00000535  0.00028265 -0.00000859  0.02267791
  2   C            X -0.00000667  0.00002825 -0.00214029 -0.00002802 -0.00248169
                   Y  0.00000172 -0.00000082  0.00009306  0.00000110  0.00031603
                   Z  0.00000615 -0.00000790  0.00071328  0.00003437 -0.00379509
  3   O            X -0.00000027 -0.00000487  0.00037877  0.00000774  0.00022552
                   Y -0.00000047  0.00000026 -0.00002942 -0.00000050  0.00000242
                   Z -0.00000173 -0.00000312  0.00014351 -0.00001144 -0.00031627
  4   C            X  0.00002921  0.00002800 -0.00144046 -0.00003114  0.00029997
                   Y  0.00000374 -0.00005053  0.00346368  0.00000222 -0.00001106
                   Z -0.00011211  0.00119995 -0.08178938 -0.00001268 -0.00010870
  5   C            X  0.00002963 -0.00009440  0.00499818  0.00005309  0.00020524
                   Y  0.00001696  0.00002896 -0.00165614 -0.00001178 -0.00000947
                   Z -0.00052486 -0.00058500  0.03415522  0.00001705 -0.00002159
  6   C            X  0.00000287  0.00009332 -0.00014489 -0.00002815 -0.00010066
                   Y  0.00000266 -0.00002692  0.00002813 -0.00008359  0.00000245
                   Z  0.00003571 -0.00000439 -0.00047565 -0.00039337  0.00005702
  7   O            X -0.00003790  0.00012406  0.00025924  0.00113325  0.00003844
                   Y -0.00001109  0.00000458 -0.00001518 -0.00005977 -0.00000183
                   Z  0.00005506 -0.00011655 -0.00000446 -0.00091836 -0.00000041
  8   C            X  0.00022153 -0.00013152 -0.00026409  0.00276170 -0.00000727
                   Y -0.00114007 -0.00125744 -0.00051764 -0.00004265  0.00000135
                   Z  0.00021273 -0.00000079 -0.00051682  0.00135835 -0.00000376
  9   N            X  0.00022555  0.00106964  0.00006078 -0.03447252  0.00000386
                   Y -0.00014306  0.00054445 -0.00001402 -0.05696985  0.00000221
                   Z  0.00063683 -0.00105475 -0.00009707  0.02587287 -0.00000550
 10   C            X -0.06413926 -0.05812461 -0.00089470 -0.00014921 -0.00000025
                   Y  0.00367987 -0.04493310 -0.00063670  0.00154905  0.00000174
                   Z -0.06543483  0.05481999  0.00077524  0.00211410  0.00000021
 11   H            X  0.17185308 -0.12407019 -0.00177023 -0.00198954 -0.00000222
                   Y -0.38383295  0.26331855  0.00364977  0.00335108  0.00000168
                   Z  0.46930383 -0.32647276 -0.00458046 -0.00255273 -0.00000100
 12   H            X  0.48055256  0.16706407  0.00281336 -0.00304461 -0.00000313
                   Y  0.31242004  0.10700952  0.00177212  0.00339403 -0.00000360
                   Z  0.38438493  0.13835216  0.00235876  0.00114422 -0.00000196
 13   H            X  0.10529688  0.63839369  0.00949453  0.00509172 -0.00000373
                   Y  0.02799145  0.16385714  0.00238456  0.00392855 -0.00000193
                   Z -0.08137259 -0.45550854 -0.00676448 -0.00390413  0.00000135
 14   H            X  0.00034252 -0.00493955  0.00016748  0.43884324 -0.00003242
                   Y  0.00162243 -0.00387345  0.00002672  0.75944289 -0.00004729
                   Z -0.00409163  0.00516068 -0.00003533 -0.38867796  0.00001775
 15   H            X -0.00180344 -0.00200034  0.00153072  0.00100891  0.00000336
                   Y  0.00937416  0.00816388 -0.00135853  0.00648264 -0.00001168
                   Z -0.00376696 -0.00339913  0.00069789 -0.00320510 -0.00000836
 16   H            X  0.00302865  0.00373236  0.00673673  0.00426278 -0.00000099
                   Y  0.00382432  0.00485132  0.00710999 -0.00226608  0.00000447
                   Z  0.00268517  0.00374065  0.00548867 -0.00164992 -0.00001251
 17   H            X -0.00005359  0.00065340 -0.04573045 -0.00008601 -0.00017638
                   Y -0.00005472  0.00049772 -0.03428935  0.00003762  0.00001229
                   Z  0.00155987 -0.01289563  0.88561625 -0.00035644 -0.00021042
 18   H            X -0.00038576 -0.00037686  0.02585721  0.00008390  0.00114639
                   Y -0.00022564 -0.00022299  0.01216759  0.00001325 -0.00001682
                   Z  0.00588735  0.00560710 -0.33067232 -0.00005526 -0.00085327
 19   H            X  0.00001332  0.00001222 -0.00049925  0.00006636  0.91494851
                   Y  0.00000122  0.00000059 -0.00002828  0.00000642 -0.03673549
                   Z  0.00000130 -0.00001441  0.00097596 -0.00001065 -0.30788277
 20   H            X -0.00097298 -0.00234848 -0.00411926 -0.01416647 -0.00023141
                   Y  0.00051158 -0.00067204  0.00009607  0.00129435  0.00000340
                   Z -0.00058484  0.00217056  0.00283645  0.01755022  0.00024168

 TRANS. SAYVETZ    X -0.00000011 -0.00000011 -0.00000018 -0.00000092 -0.00000016
                   Y -0.00000008 -0.00000009  0.00000005 -0.00000061 -0.00000004
                   Z -0.00000007  0.00000001  0.00000010 -0.00000072  0.00000079
               TOTAL  0.00000015  0.00000014  0.00000021  0.00000131  0.00000081

   ROT. SAYVETZ    X  0.00173258 -0.00324060  0.00014843  0.00604430 -0.00055262
                   Y  0.00373912  0.00195525  0.00227548 -0.00472493 -0.00991422
                   Z -0.00079795 -0.00264857  0.00005999 -0.00255393 -0.00045818
               TOTAL  0.00419757  0.00461946  0.00228111  0.00808585  0.00994017

 REFERENCE ON SAYVETZ CONDITIONS - A. SAYVETZ, J.CHEM.PHYS., 7, 383-389(1939).

 NOTE - THE MODES J,K ARE ORTHONORMALIZED ACCORDING TO
 SUM ON I   M(I) * (X(I,J)*X(I,K) + Y(I,J)*Y(I,K) + Z(I,J)*Z(I,K)) = DELTA(J,K)

  MODE FREQ(CM**-1)  SYMMETRY  RED. MASS  IR INTENS.
     1     304.501    A        1.499157    1.550643
     2     284.305    A        1.053625    0.243981
     3     197.350    A        3.956034    0.119142
     4     182.640    A        2.629535    0.535572
     5     151.621    A        6.627918    0.039462
     6     130.174    A        2.393513    0.606552
     7      65.951    A        5.005609    0.035010
     8      48.831    A        5.019594    0.257702
     9       0.006    A        7.202643    0.000000
    10       0.002    A        7.203333    0.000000
    11       0.012    A        7.203335    0.000000
    12      84.468    A        5.613273    0.506543
    13     131.152    A        3.360933    3.643470
    14     162.641    A        2.222150    1.607464
    15     206.468    A        4.784360    0.041411
    16     221.550    A        3.378639    4.619130
    17     406.499    A        7.904296    0.564257
    18     458.638    A        2.356465    0.535986
    19     471.645    A        3.215502    0.149130
    20     533.204    A        3.882560    0.269276
    21     598.587    A        3.963967    0.898014
    22     660.710    A        4.698322    0.396183
    23     748.511    A        3.302832    1.259835
    24     841.968    A        1.517887    1.147501
    25    1010.232    A        2.009088    0.112240
    26    1036.360    A        3.072997    0.185560
    27    1091.162    A        2.493589    1.545852
    28    1106.148    A        3.583005    0.270783
    29    1159.189    A        1.511300    0.527949
    30    1171.660    A        1.262091    0.426673
    31    1318.086    A        1.281671    1.073823
    32    1340.907    A        1.337764    0.187721
    33    1379.259    A        1.611321    2.177569
    34    1402.303    A        1.633191    2.268662
    35    1445.141    A        1.518830    0.784510
    36    1452.672    A        1.770602    1.153515
    37    1460.588    A        1.556271    2.386185
    38    1477.020    A        1.287507    0.153275
    39    1585.370    A        1.085945    2.752982
    40    1602.103    A        1.649021   15.041140
    41    1681.442    A        1.427764    3.083426
    42    1694.277    A        2.860019    8.104172
    43    1730.952    A        1.915128    4.194314
    44    1744.046    A        1.322201    0.819976
    45    1775.664    A        1.317625    5.609108
    46    1790.685    A        1.085475    1.338718
    47    1802.590    A        1.160431    1.194037
    48    1934.072    A        5.658876    4.305761
    49    2002.516    A        5.053481    8.993913
    50    2267.448    A       12.084475    1.770560
    51    2941.705    A        1.069557   32.311364
    52    3602.629    A        1.041243    0.013534
    53    3630.279    A        1.068367    0.338276
    54    3733.511    A        1.109696    0.445907
    55    3766.921    A        1.092207    2.079440
    56    3770.314    A        1.110501    0.020681
    57    3790.004    A        1.110471    0.121119
    58    3791.133    A        1.103749    0.161961
    59    4274.756    A        1.079657    0.880976
    60    4531.180    A        1.067242    0.374197

     -------------------------------
     THERMOCHEMISTRY AT T=  298.15 K
     -------------------------------

 USING IDEAL GAS, RIGID ROTOR, HARMONIC NORMAL MODE APPROXIMATIONS.
 P=  1.01325E+05 PASCAL.
 ALL FREQUENCIES ARE SCALED BY   1.00000
 THE MOMENTS OF INERTIA ARE (IN AMU*BOHR**2)
    503.11581  3556.63102  3913.42020
 THE ROTATIONAL SYMMETRY NUMBER IS  1.0
 THE ROTATIONAL CONSTANTS ARE (IN GHZ)
      3.58384     0.50697     0.46074
   6 IMAGINARY FREQUENCY VIBRATION(S) IS(ARE) EXCLUDED
     FROM THE FOLLOWING THERMOCHEMICAL ANALYSIS.
     13 -     60 VIBRATIONAL MODES ARE USED IN THERMOCHEMISTRY.
 THE HARMONIC ZERO POINT ENERGY IS (SCALED BY   1.000)
        0.188486 HARTREE/MOLECULE    41367.949200 CM**-1/MOLECULE 
      118.277021 KCAL/MOL              494.871055 KJ/MOL

               Q               LN Q
 ELEC.     1.00000E+00       0.000000
 TRANS.    6.79667E+07      18.034529
 ROT.      9.47268E+05      13.761338
 VIB.      1.80010E+01       2.890430
 TOT.      1.15896E+15      34.686296

              E         H         G         CV        CP        S
           KJ/MOL    KJ/MOL    KJ/MOL   J/MOL-K   J/MOL-K   J/MOL-K
 ELEC.      0.000     0.000     0.000     0.000     0.000     0.000
 TRANS.     3.718     6.197   -44.707    12.472    20.786   170.732
 ROT.       3.718     3.718   -34.114    12.472    12.472   126.889
 VIB.     505.558   505.558   487.706    79.151    79.151    59.875
 TOTAL    512.994   515.473   408.886   104.094   112.409   357.496
 VIB. THERMAL CORRECTION E(T)-E(0) = H(T)-H(0) = 10686.473 J/MOL

              E         H         G         CV        CP        S
         KCAL/MOL  KCAL/MOL  KCAL/MOL CAL/MOL-K CAL/MOL-K CAL/MOL-K
 ELEC.      0.000     0.000     0.000     0.000     0.000     0.000
 TRANS.     0.889     1.481   -10.685     2.981     4.968    40.806
 ROT.       0.889     0.889    -8.153     2.981     2.981    30.327
 VIB.     120.831   120.831   116.564    18.918    18.918    14.310
 TOTAL    122.609   123.201    97.726    24.879    26.866    85.444
 VIB. THERMAL CORRECTION E(T)-E(0) = H(T)-H(0) =  2554.128 CAL/MOL

     *******************************************************
     * THIS IS NOT A STATIONARY POINT ON THE MOLECULAR PES *
     *     THE VIBRATIONAL ANALYSIS IS NOT VALID !!!       *
     *******************************************************
 ......END OF NORMAL COORDINATE ANALYSIS......
 CPU     0: STEP CPU TIME=     0.01 TOTAL CPU TIME=          6.4 (      0.1 MIN)
 TOTAL WALL CLOCK TIME=          7.2 SECONDS, CPU UTILIZATION IS    88.21%
               580000  WORDS OF DYNAMIC MEMORY USED
 EXECUTION OF GAMESS TERMINATED NORMALLY Thu Apr 11 09:36:57 2019
 DDI: 263640 bytes (0.3 MB / 0 MWords) used by master data server.

 ----------------------------------------
 CPU timing information for all processes
 ========================================
 0: 6.321 + 0.44 = 6.365
 1: 7.158 + 0.16 = 7.174
 2: 6.985 + 0.35 = 7.21
 3: 7.80 + 0.16 = 7.96
 ----------------------------------------
 ddikick.x: exited gracefully.
----- accounting info -----
Files used on the master node chimie-106 were:
-rw-rw-r-- 1 chimie chimie  189818 avril 11 09:36 /tmp/saddle2.dat
-rw-r--r-- 1 chimie chimie     930 avril 11 09:36 /tmp/saddle2.F05
-rw-rw-r-- 1 chimie chimie 4320384 avril 11 09:36 /tmp/saddle2.F08
-rw-rw-r-- 1 chimie chimie 2340208 avril 11 09:36 /tmp/saddle2.F08.001
-rw-rw-r-- 1 chimie chimie 2160192 avril 11 09:36 /tmp/saddle2.F08.002
-rw-rw-r-- 1 chimie chimie 2340208 avril 11 09:36 /tmp/saddle2.F08.003
-rw-rw-r-- 1 chimie chimie 1897760 avril 11 09:36 /tmp/saddle2.F10
-rw-rw-r-- 1 chimie chimie  878880 avril 11 09:36 /tmp/saddle2.F18
jeudi 11 avril 2019, 09:37:00 (UTC+0200)
0.0u 0.0s 0:10.27 0.4% 0+0k 0+16io 0pf+0w
