 Entering Gaussian System, Link 0=/usr/local/lib/g03/g03
 Initial command:
 /usr/local/lib/g03/l1.exe /tmp/g034660/Gau-4664.inp -scrdir=/tmp/g034660/
 Entering Link 1 = /usr/local/lib/g03/l1.exe PID=      4667.
  
 Copyright (c) 1988,1990,1992,1993,1995,1998,2003,2004, Gaussian, Inc.
                  All Rights Reserved.
  
 This is the Gaussian(R) 03 program.  It is based on the
 the Gaussian(R) 98 system (copyright 1998, Gaussian, Inc.),
 the Gaussian(R) 94 system (copyright 1995, Gaussian, Inc.),
 the Gaussian 92(TM) system (copyright 1992, Gaussian, Inc.),
 the Gaussian 90(TM) system (copyright 1990, Gaussian, Inc.),
 the Gaussian 88(TM) system (copyright 1988, Gaussian, Inc.),
 the Gaussian 86(TM) system (copyright 1986, Carnegie Mellon
 University), and the Gaussian 82(TM) system (copyright 1983,
 Carnegie Mellon University). Gaussian is a federally registered
 trademark of Gaussian, Inc.
  
 This software contains proprietary and confidential information,
 including trade secrets, belonging to Gaussian, Inc.
  
 This software is provided under written license and may be
 used, copied, transmitted, or stored only in accord with that
 written license.
  
 The following legend is applicable only to US Government
 contracts under FAR:
  
                    RESTRICTED RIGHTS LEGEND
  
 Use, reproduction and disclosure by the US Government is
 subject to restrictions as set forth in subparagraphs (a)
 and (c) of the Commercial Computer Software - Restricted
 Rights clause in FAR 52.227-19.
  
 Gaussian, Inc.
 340 Quinnipiac St., Bldg. 40, Wallingford CT 06492
  
  
 ---------------------------------------------------------------
 Warning -- This program may not be used in any manner that
 competes with the business of Gaussian, Inc. or will provide
 assistance to any competitor of Gaussian, Inc.  The licensee
 of this program is prohibited from giving any competitor of
 Gaussian, Inc. access to this program.  By using this program,
 the user acknowledges that Gaussian, Inc. is engaged in the
 business of creating and licensing software in the field of
 computational chemistry and represents and warrants to the
 licensee that it is not a competitor of Gaussian, Inc. and that
 it will not use this program in any manner prohibited above.
 ---------------------------------------------------------------
  

 Cite this work as:
 Gaussian 03, Revision D.01,
 M. J. Frisch, G. W. Trucks, H. B. Schlegel, G. E. Scuseria, 
 M. A. Robb, J. R. Cheeseman, J. A. Montgomery, Jr., T. Vreven, 
 K. N. Kudin, J. C. Burant, J. M. Millam, S. S. Iyengar, J. Tomasi, 
 V. Barone, B. Mennucci, M. Cossi, G. Scalmani, N. Rega, 
 G. A. Petersson, H. Nakatsuji, M. Hada, M. Ehara, K. Toyota, 
 R. Fukuda, J. Hasegawa, M. Ishida, T. Nakajima, Y. Honda, O. Kitao, 
 H. Nakai, M. Klene, X. Li, J. E. Knox, H. P. Hratchian, J. B. Cross, 
 V. Bakken, C. Adamo, J. Jaramillo, R. Gomperts, R. E. Stratmann, 
 O. Yazyev, A. J. Austin, R. Cammi, C. Pomelli, J. W. Ochterski, 
 P. Y. Ayala, K. Morokuma, G. A. Voth, P. Salvador, J. J. Dannenberg, 
 V. G. Zakrzewski, S. Dapprich, A. D. Daniels, M. C. Strain, 
 O. Farkas, D. K. Malick, A. D. Rabuck, K. Raghavachari, 
 J. B. Foresman, J. V. Ortiz, Q. Cui, A. G. Baboul, S. Clifford, 
 J. Cioslowski, B. B. Stefanov, G. Liu, A. Liashenko, P. Piskorz, 
 I. Komaromi, R. L. Martin, D. J. Fox, T. Keith, M. A. Al-Laham, 
 C. Y. Peng, A. Nanayakkara, M. Challacombe, P. M. W. Gill, 
 B. Johnson, W. Chen, M. W. Wong, C. Gonzalez, and J. A. Pople, 
 Gaussian, Inc., Wallingford CT, 2004.
 
 ******************************************
 Gaussian 03:  IA32L-G03RevD.01 13-Oct-2005
                12-Aug-2013 
 ******************************************
 %Mem=1GB
 ---------------------------------------------------------------
 #P MP2/GEN freq=Numer pseudo=read # pop=full gfinput iop(6/7=3)
 ---------------------------------------------------------------
 1/10=4,30=1,38=11/1,3,6;
 2/17=6,18=5,40=1/2;
 3/5=7,11=9,16=1,17=8,24=10,25=1,30=1/1,2,3;
 4/69=2/1;
 5/5=2,38=5/2;
 8/6=4,10=1/1;
 9/15=2,16=-3/6;
 10/5=1/2;
 6/7=3,22=-1/1;
 7/12=2/1,2,3,16;
 1/38=10/6(3);
 7/8=1,25=1,44=-1/16;
 1/10=4,30=1,38=10/3;
 99//99;
 3/5=7,6=1,11=9,16=1,17=8,25=1,30=1,82=7/1,2,3;
 4/5=5,16=3,69=2/1;
 5/5=2,38=5/2;
 8/6=4,10=1/1;
 9/15=2,16=-3/6;
 10/5=1/2;
 6/7=3,22=-1/1;
 7/7=1,12=2/1,2,3,16;
 1/38=10/6(-8);
 7/8=1,25=1,44=-1/16;
 1/10=4,30=1,38=10/3;
 99//99;
 Leave Link    1 at Mon Aug 12 23:13:05 2013, MaxMem=  134217728 cpu:       0.3
 (Enter /usr/local/lib/g03/l101.exe)
 ---
 job
 ---
 Symbolic Z-matrix:
 Charge =  0 Multiplicity = 2
 I
 
                    Isotopes and Nuclear Properties:
 (Nuclear quadrupole moments (NQMom) in fm**2, nuclear magnetic moments (NMagM)
  in nuclear magnetons)

  Atom         1
 IAtWgt=         127
 AtmWgt= 126.9004000
 NucSpn=           5
 AtZEff=   0.0000000
 NQMom=  -71.0000000
 NMagM=    2.8132800
 Leave Link  101 at Mon Aug 12 23:13:15 2013, MaxMem=  134217728 cpu:       0.1
 (Enter /usr/local/lib/g03/l103.exe)

 GradGradGradGradGradGradGradGradGradGradGradGradGradGradGradGradGradGrad
 Berny optimization.
 Initialization pass.
 Trust Radius=3.00D-01 FncErr=1.00D-07 GrdErr=1.00D-07
 Number of steps in this run=   2 maximum allowed number of steps=   2.
 GradGradGradGradGradGradGradGradGradGradGradGradGradGradGradGradGradGrad

 Leave Link  103 at Mon Aug 12 23:13:26 2013, MaxMem=  134217728 cpu:       0.1
 (Enter /usr/local/lib/g03/l106.exe)
 NDeriv=   3 NFrqRd=  0 LFDDif=       0
 Numerical evaluation of force-constants.
 Nuclear step= 0.001000 Angstroms, electric field step= 0.001890 atomic units.
 Leave Link  106 at Mon Aug 12 23:13:37 2013, MaxMem=  134217728 cpu:       0.0
 (Enter /usr/local/lib/g03/l202.exe)
                          Input orientation:                          
 ---------------------------------------------------------------------
 Center     Atomic     Atomic              Coordinates (Angstroms)
 Number     Number      Type              X           Y           Z
 ---------------------------------------------------------------------
    1         53             0        0.000000    0.000000    0.000000
 ---------------------------------------------------------------------
 Stoichiometry    I(2)
 Framework group  OH[O(I)]
 Deg. of freedom     0
 Full point group                 OH
 Largest Abelian subgroup         D2H     NOp   8
 Largest concise Abelian subgroup C1      NOp   1
                         Standard orientation:                         
 ---------------------------------------------------------------------
 Center     Atomic     Atomic              Coordinates (Angstroms)
 Number     Number      Type              X           Y           Z
 ---------------------------------------------------------------------
    1         53             0        0.000000    0.000000    0.000000
 ---------------------------------------------------------------------
 Leave Link  202 at Mon Aug 12 23:13:48 2013, MaxMem=  134217728 cpu:       0.1
 (Enter /usr/local/lib/g03/l301.exe)
 General basis read from cards:  (5D, 7F)
 Centers:   1
 S 11 1.00
     Exponent=  5.5465000000D+03 Coefficients=  1.5600000000D-04
     Exponent=  8.3821400000D+02 Coefficients=  9.8600000000D-04
     Exponent=  1.8218700000D+02 Coefficients=  2.7920000000D-03
     Exponent=  3.1212300000D+01 Coefficients= -4.3251000000D-02
     Exponent=  1.9531400000D+01 Coefficients=  2.3413400000D-01
     Exponent=  8.2409900000D+00 Coefficients= -7.5094300000D-01
     Exponent=  2.1945500000D+00 Coefficients=  8.8296800000D-01
     Exponent=  1.1091100000D+00 Coefficients=  4.6206100000D-01
     Exponent=  3.7464100000D-01 Coefficients=  2.2286000000D-02
     Exponent=  1.7708000000D-01 Coefficients= -4.3530000000D-03
     Exponent=  8.1061000000D-02 Coefficients=  1.1020000000D-03
 S 11 1.00
     Exponent=  5.5465000000D+03 Coefficients= -7.3000000000D-05
     Exponent=  8.3821400000D+02 Coefficients= -5.0800000000D-04
     Exponent=  1.8218700000D+02 Coefficients= -1.1580000000D-03
     Exponent=  3.1212300000D+01 Coefficients=  1.2193000000D-02
     Exponent=  1.9531400000D+01 Coefficients= -8.7854000000D-02
     Exponent=  8.2409900000D+00 Coefficients=  3.3820000000D-01
     Exponent=  2.1945500000D+00 Coefficients= -5.7655000000D-01
     Exponent=  1.1091100000D+00 Coefficients= -4.0929800000D-01
     Exponent=  3.7464100000D-01 Coefficients=  5.6745900000D-01
     Exponent=  1.7708000000D-01 Coefficients=  6.1248900000D-01
     Exponent=  8.1061000000D-02 Coefficients=  1.4323100000D-01
 S 1 1.00
     Exponent=  3.7464100000D-01 Coefficients=  1.0000000000D+00
 S 1 1.00
     Exponent=  1.7708000000D-01 Coefficients=  1.0000000000D+00
 S 1 1.00
     Exponent=  1.0010000000D-01 Coefficients=  1.0000000000D+00
 P 9 1.00
     Exponent=  1.8898800000D+02 Coefficients=  5.8500000000D-04
     Exponent=  2.1286800000D+01 Coefficients=  3.6923000000D-02
     Exponent=  1.0039600000D+01 Coefficients= -2.3532400000D-01
     Exponent=  3.4518000000D+00 Coefficients=  3.4148300000D-01
     Exponent=  1.9745600000D+00 Coefficients=  5.3478800000D-01
     Exponent=  1.0242000000D+00 Coefficients=  2.6514100000D-01
     Exponent=  4.4943700000D-01 Coefficients=  2.5787000000D-02
     Exponent=  1.8664800000D-01 Coefficients=  5.2200000000D-04
     Exponent=  7.3481000000D-02 Coefficients=  6.0600000000D-04
 P 9 1.00
     Exponent=  1.8898800000D+02 Coefficients= -2.5600000000D-04
     Exponent=  2.1286800000D+01 Coefficients= -1.1682000000D-02
     Exponent=  1.0039600000D+01 Coefficients=  8.3192000000D-02
     Exponent=  3.4518000000D+00 Coefficients= -1.5697000000D-01
     Exponent=  1.9745600000D+00 Coefficients= -2.2451800000D-01
     Exponent=  1.0242000000D+00 Coefficients= -1.1445100000D-01
     Exponent=  4.4943700000D-01 Coefficients=  3.7535600000D-01
     Exponent=  1.8664800000D-01 Coefficients=  5.7513600000D-01
     Exponent=  7.3481000000D-02 Coefficients=  2.4591700000D-01
 P 1 1.00
     Exponent=  5.9810000000D-01 Coefficients=  1.0000000000D+00
 P 1 1.00
     Exponent=  9.6180000000D-02 Coefficients=  1.0000000000D+00
 D 9 1.00
     Exponent=  1.3266200000D+02 Coefficients=  5.7200000000D-04
     Exponent=  3.7605400000D+01 Coefficients=  4.4020000000D-03
     Exponent=  1.0389100000D+01 Coefficients= -4.0922000000D-02
     Exponent=  6.4901700000D+00 Coefficients=  9.9661000000D-02
     Exponent=  3.4545100000D+00 Coefficients=  3.2266300000D-01
     Exponent=  1.8441300000D+00 Coefficients=  4.0034300000D-01
     Exponent=  9.6247800000D-01 Coefficients=  2.6830600000D-01
     Exponent=  4.7285300000D-01 Coefficients=  8.4847000000D-02
     Exponent=  1.9320000000D-01 Coefficients=  7.6320000000D-03
 D 1 1.00
     Exponent=  4.7285300000D-01 Coefficients=  1.0000000000D+00
 D 1 1.00
     Exponent=  1.9320000000D-01 Coefficients=  1.0000000000D+00
 F 1 1.00
     Exponent=  4.0640000000D-01 Coefficients=  1.0000000000D+00
 ****
 AO basis set in the form of general basis input:
      1 0
 S  11 1.00       0.000000000000
      0.5546500000D+04  0.1560000145D-03
      0.8382140000D+03  0.9860000916D-03
      0.1821870000D+03  0.2792000259D-02
      0.3121230000D+02 -0.4325100402D-01
      0.1953140000D+02  0.2341340218D+00
      0.8240990000D+01 -0.7509430698D+00
      0.2194550000D+01  0.8829680821D+00
      0.1109110000D+01  0.4620610429D+00
      0.3746410000D+00  0.2228600207D-01
      0.1770800000D+00 -0.4353000405D-02
      0.8106100000D-01  0.1102000102D-02
 S  11 1.00       0.000000000000
      0.5546500000D+04 -0.7300004360D-04
      0.8382140000D+03 -0.5080003034D-03
      0.1821870000D+03 -0.1158000692D-02
      0.3121230000D+02  0.1219300728D-01
      0.1953140000D+02 -0.8785405247D-01
      0.8240990000D+01  0.3382002020D+00
      0.2194550000D+01 -0.5765503443D+00
      0.1109110000D+01 -0.4092982444D+00
      0.3746410000D+00  0.5674593389D+00
      0.1770800000D+00  0.6124893658D+00
      0.8106100000D-01  0.1432310855D+00
 S   1 1.00       0.000000000000
      0.3746410000D+00  0.1000000000D+01
 S   1 1.00       0.000000000000
      0.1770800000D+00  0.1000000000D+01
 S   1 1.00       0.000000000000
      0.1001000000D+00  0.1000000000D+01
 P   9 1.00       0.000000000000
      0.1889880000D+03  0.5850000660D-03
      0.2128680000D+02  0.3692300416D-01
      0.1003960000D+02 -0.2353240265D+00
      0.3451800000D+01  0.3414830385D+00
      0.1974560000D+01  0.5347880603D+00
      0.1024200000D+01  0.2651410299D+00
      0.4494370000D+00  0.2578700291D-01
      0.1866480000D+00  0.5220000589D-03
      0.7348100000D-01  0.6060000684D-03
 P   9 1.00       0.000000000000
      0.1889880000D+03 -0.2559998997D-03
      0.2128680000D+02 -0.1168199542D-01
      0.1003960000D+02  0.8319196740D-01
      0.3451800000D+01 -0.1569699385D+00
      0.1974560000D+01 -0.2245179120D+00
      0.1024200000D+01 -0.1144509551D+00
      0.4494370000D+00  0.3753558529D+00
      0.1866480000D+00  0.5751357746D+00
      0.7348100000D-01  0.2459169036D+00
 P   1 1.00       0.000000000000
      0.5981000000D+00  0.1000000000D+01
 P   1 1.00       0.000000000000
      0.9618000000D-01  0.1000000000D+01
 D   9 1.00       0.000000000000
      0.1326620000D+03  0.5720000717D-03
      0.3760540000D+02  0.4402000552D-02
      0.1038910000D+02 -0.4092200513D-01
      0.6490170000D+01  0.9966101249D-01
      0.3454510000D+01  0.3226630405D+00
      0.1844130000D+01  0.4003430502D+00
      0.9624780000D+00  0.2683060336D+00
      0.4728530000D+00  0.8484701064D-01
      0.1932000000D+00  0.7632000957D-02
 D   1 1.00       0.000000000000
      0.4728530000D+00  0.1000000000D+01
 D   1 1.00       0.000000000000
      0.1932000000D+00  0.1000000000D+01
 F   1 1.00       0.000000000000
      0.4064000000D+00  0.1000000000D+01
 ****

 ===================================================================================================================================
 Pseudopotential Parameters 
 ===================================================================================================================================
  Center     Atomic      Valence      Angular      Power                                                       Coordinates
  Number     Number     Electrons     Momentum     of R      Exponent        Coefficient                X           Y           Z
 ===================================================================================================================================
    1         53           25                                                                       0.000000  0.000000  0.000000
                                      G and up 
                                                     2        1.0000000        0.00000000
                                      S - G
                                                     2       40.0333760       49.98964900
                                                     2       17.3005760      281.00655600
                                                     2        8.8517200       61.41673900
                                      P - G
                                                     2       15.7201410       67.41623900
                                                     2       15.2082220      134.80769600
                                                     2        8.2941860       14.56654800
                                                     2        7.7539490       28.96842200
                                      D - G
                                                     2       13.8177510       35.53875600
                                                     2       13.5878050       53.33975900
                                                     2        6.9476300        9.71646600
                                                     2        6.9600990       14.97750000
                                      F - G
                                                     2       18.5229500      -20.17661800
                                                     2       18.2510350      -26.08807700
                                                     2        7.5579010       -0.22043400
                                                     2        7.5974040       -0.22164600
 ===================================================================================================================================
 There are    11 symmetry adapted basis functions of AG  symmetry.
 There are     3 symmetry adapted basis functions of B1G symmetry.
 There are     3 symmetry adapted basis functions of B2G symmetry.
 There are     3 symmetry adapted basis functions of B3G symmetry.
 There are     1 symmetry adapted basis functions of AU  symmetry.
 There are     6 symmetry adapted basis functions of B1U symmetry.
 There are     6 symmetry adapted basis functions of B2U symmetry.
 There are     6 symmetry adapted basis functions of B3U symmetry.
 Integral buffers will be    262144 words long.
 Raffenetti 2 integral format.
 Two-electron integral symmetry is turned on.
    39 basis functions,   161 primitive gaussians,    45 cartesian basis functions
    13 alpha electrons       12 beta electrons
       nuclear repulsion energy         0.0000000000 Hartrees.
 IExCor=   0 DFT=F Ex=HF Corr=None ExCW=0 ScaHFX=  1.000000
 ScaDFX=  1.000000  1.000000  1.000000  1.000000
 IRadAn=      0 IRanWt=     -1 IRanGd=            0 ICorTp=0
 NAtoms=    1 NActive=    1 NUniq=    1 SFac= 7.50D-01 NAtFMM=   80 NAOKFM=F Big=F
 Leave Link  301 at Mon Aug 12 23:14:01 2013, MaxMem=  134217728 cpu:       0.1
 (Enter /usr/local/lib/g03/l302.exe)
 NPDir=0 NMtPBC=     1 NCelOv=     1 NCel=       1 NClECP=     1 NCelD=      1
         NCelK=      1 NCelE2=     1 NClLst=     1 CellRange=     0.0.
 One-electron integrals computed using PRISM.
   1 Symmetry operations used in ECPInt.
 ECPInt:  NShTT=      91 NPrTT=    1871 LenC2=      92 LenP2D=    1871.
 LDataN:  DoStor=F MaxTD1= 7 Len=  274
 LDataN:  DoStor=T MaxTD1= 7 Len=  274
 NBasis=    39 RedAO= T  NBF=    11     3     3     3     1     6     6     6
 NBsUse=    39 1.00D-06 NBFU=    11     3     3     3     1     6     6     6
 Leave Link  302 at Mon Aug 12 23:14:13 2013, MaxMem=  134217728 cpu:       0.8
 (Enter /usr/local/lib/g03/l303.exe)
 DipDrv:  MaxL=1.
 Leave Link  303 at Mon Aug 12 23:14:23 2013, MaxMem=  134217728 cpu:       0.0
 (Enter /usr/local/lib/g03/l401.exe)
 Harris functional with IExCor=  205 diagonalized for initial guess.
 ExpMin= 7.35D-02 ExpMax= 5.55D+03 ExpMxC= 3.12D+01 IAcc=2 IRadAn=         4 AccDes= 0.00D+00
 HarFok:  IExCor= 205 AccDes= 0.00D+00 IRadAn=         4 IDoV=1
 ScaDFX=  1.000000  1.000000  1.000000  1.000000
 Defaulting to unpruned grid for atomic number  53.
 Harris En=  1838.29847702558    
 Initial guess orbital symmetries:
 Alpha Orbitals:
       Occupied  (A1G) (T1U) (T1U) (T1U) (EG) (EG) (T2G) (T2G)
                 (T2G) (A1G) (T1U) (T1U) (T1U)
       Virtual   (A1G) (T2G) (EG) (T2G) (T2G) (EG) (T1U) (T1U)
                 (T1U) (?A) (?A) (?A) (?A) (?A) (A2U) (?A) (A1G)
                 (EG) (EG) (T2G) (T2G) (T2G) (T1U) (T1U) (T1U)
                 (A1G)
 Beta  Orbitals:
       Occupied  (A1G) (T1U) (T1U) (T1U) (EG) (EG) (T2G) (T2G)
                 (T2G) (A1G) (T1U) (T1U)
       Virtual   (T1U) (A1G) (T2G) (EG) (T2G) (T2G) (EG) (T1U)
                 (T1U) (T1U) (?A) (?A) (?A) (?A) (?A) (A2U) (?A)
                 (A1G) (EG) (EG) (T2G) (T2G) (T2G) (T1U) (T1U)
                 (T1U) (A1G)
 <S**2> of initial guess= 0.7500
 Leave Link  401 at Mon Aug 12 23:14:35 2013, MaxMem=  134217728 cpu:       0.1
 (Enter /usr/local/lib/g03/l502.exe)
 UHF open shell SCF:
 Requested convergence on RMS density matrix=1.00D-08 within 128 cycles.
 Requested convergence on MAX density matrix=1.00D-06.
 Requested convergence on             energy=1.00D-06.
 No special actions if energy rises.
 Using DIIS extrapolation, IDIIS=  1040.
 Integral symmetry usage will be decided dynamically.
 Keep R1 and R2 integrals in memory in canonical form, NReq=     3084358.
 IEnd=     24473 IEndB=     24473 NGot= 134217728 MDV= 133139692
 LenX= 133139692
 Symmetry not used in FoFDir.
 MinBra= 0 MaxBra= 3 Meth= 1.
 IRaf=       0 NMat=   1 IRICut=       1 DoRegI=T DoRafI=F ISym2E= 0 JSym2E=0.

 Density matrix breaks symmetry, PCut= 1.00D-04
 Density has only Abelian symmetry.
 Cycle   1  Pass 1  IDiag  1:
 E= -294.388219739905    
 DIIS: error= 8.36D-01 at cycle   1 NSaved=   1.
 NSaved= 1 IEnMin= 1 EnMin= -294.388219739905     IErMin= 1 ErrMin= 8.36D-01
 ErrMax= 8.36D-01 EMaxC= 1.00D-01 BMatC= 2.14D+01 BMatP= 2.14D+01
 IDIUse=3 WtCom= 0.00D+00 WtEn= 1.00D+00
 Coeff-Com:  0.100D+01
 Coeff-En:   0.100D+01
 Coeff:      0.100D+01
 Gap=     0.588 Goal=   None    Shift=    0.000
 Gap=     0.339 Goal=   None    Shift=    0.000
 GapD=    0.339 DampG=1.000 DampE=0.250 DampFc=0.2500 IDamp=-1.
 Damping current iteration by 2.50D-01
 RMSDP=3.99D-02 MaxDP=8.76D-01              OVMax= 8.89D-02

 Density matrix breaks symmetry, PCut= 1.00D-07
 Density has only Abelian symmetry.
 Cycle   2  Pass 1  IDiag  1:
 E= -294.460537386390     Delta-E=       -0.072317646485 Rises=F Damp=T
 DIIS: error= 6.26D-01 at cycle   2 NSaved=   2.
 NSaved= 2 IEnMin= 2 EnMin= -294.460537386390     IErMin= 2 ErrMin= 6.26D-01
 ErrMax= 6.26D-01 EMaxC= 1.00D-01 BMatC= 1.20D+01 BMatP= 2.14D+01
 IDIUse=3 WtCom= 0.00D+00 WtEn= 1.00D+00
 Coeff-Com: -0.296D+01 0.396D+01
 Coeff-En:   0.000D+00 0.100D+01
 Coeff:      0.000D+00 0.100D+01
 Gap=     0.595 Goal=   None    Shift=    0.000
 Gap=     0.317 Goal=   None    Shift=    0.000
 RMSDP=2.89D-02 MaxDP=6.42D-01 DE=-7.23D-02 OVMax= 8.31D-03

 Density matrix breaks symmetry, PCut= 1.00D-07
 Density has only Abelian symmetry.
 Cycle   3  Pass 1  IDiag  1:
 E= -294.655591993179     Delta-E=       -0.195054606789 Rises=F Damp=F
 DIIS: error= 1.69D-02 at cycle   3 NSaved=   3.
 NSaved= 3 IEnMin= 3 EnMin= -294.655591993179     IErMin= 3 ErrMin= 1.69D-02
 ErrMax= 1.69D-02 EMaxC= 1.00D-01 BMatC= 5.02D-02 BMatP= 1.20D+01
 IDIUse=3 WtCom= 8.31D-01 WtEn= 1.69D-01
 Coeff-Com:  0.677D+01-0.904D+01 0.327D+01
 Coeff-En:   0.000D+00 0.000D+00 0.100D+01
 Coeff:      0.563D+01-0.751D+01 0.289D+01
 Gap=     0.624 Goal=   None    Shift=    0.000
 Gap=     0.331 Goal=   None    Shift=    0.000
 RMSDP=2.74D-03 MaxDP=4.60D-02 DE=-1.95D-01 OVMax= 2.01D-02

 Density matrix breaks symmetry, PCut= 1.00D-07
 Density has only Abelian symmetry.
 Cycle   4  Pass 1  IDiag  1:
 E= -294.661464580350     Delta-E=       -0.005872587171 Rises=F Damp=F
 DIIS: error= 8.88D-04 at cycle   4 NSaved=   4.
 NSaved= 4 IEnMin= 4 EnMin= -294.661464580350     IErMin= 4 ErrMin= 8.88D-04
 ErrMax= 8.88D-04 EMaxC= 1.00D-01 BMatC= 7.52D-05 BMatP= 5.02D-02
 IDIUse=3 WtCom= 9.91D-01 WtEn= 8.88D-03
 Coeff-Com: -0.142D+00 0.189D+00-0.597D-01 0.101D+01
 Coeff-En:   0.000D+00 0.000D+00 0.000D+00 0.100D+01
 Coeff:     -0.141D+00 0.187D+00-0.591D-01 0.101D+01
 Gap=     0.623 Goal=   None    Shift=    0.000
 Gap=     0.332 Goal=   None    Shift=    0.000
 RMSDP=2.42D-04 MaxDP=7.28D-03 DE=-5.87D-03 OVMax= 2.30D-03

 Density matrix breaks symmetry, PCut= 1.00D-07
 Density has only Abelian symmetry.
 Cycle   5  Pass 1  IDiag  1:
 E= -294.661497121005     Delta-E=       -0.000032540655 Rises=F Damp=F
 DIIS: error= 3.38D-04 at cycle   5 NSaved=   5.
 NSaved= 5 IEnMin= 5 EnMin= -294.661497121005     IErMin= 5 ErrMin= 3.38D-04
 ErrMax= 3.38D-04 EMaxC= 1.00D-01 BMatC= 1.03D-05 BMatP= 7.52D-05
 IDIUse=3 WtCom= 9.97D-01 WtEn= 3.38D-03
 Coeff-Com: -0.109D-01 0.147D-01-0.113D-01-0.570D+00 0.158D+01
 Coeff-En:   0.000D+00 0.000D+00 0.000D+00 0.000D+00 0.100D+01
 Coeff:     -0.108D-01 0.146D-01-0.112D-01-0.568D+00 0.158D+01
 Gap=     0.623 Goal=   None    Shift=    0.000
 Gap=     0.333 Goal=   None    Shift=    0.000
 RMSDP=1.51D-04 MaxDP=5.19D-03 DE=-3.25D-05 OVMax= 1.34D-03

 Density matrix breaks symmetry, PCut= 1.00D-07
 Density has only Abelian symmetry.
 Cycle   6  Pass 1  IDiag  1:
 E= -294.661502958034     Delta-E=       -0.000005837029 Rises=F Damp=F
 DIIS: error= 2.41D-05 at cycle   6 NSaved=   6.
 NSaved= 6 IEnMin= 6 EnMin= -294.661502958034     IErMin= 6 ErrMin= 2.41D-05
 ErrMax= 2.41D-05 EMaxC= 1.00D-01 BMatC= 5.03D-08 BMatP= 1.03D-05
 IDIUse=1 WtCom= 1.00D+00 WtEn= 0.00D+00
 Coeff-Com:  0.469D-02-0.631D-02 0.435D-02 0.164D+00-0.486D+00 0.132D+01
 Coeff:      0.469D-02-0.631D-02 0.435D-02 0.164D+00-0.486D+00 0.132D+01
 Gap=     0.623 Goal=   None    Shift=    0.000
 Gap=     0.333 Goal=   None    Shift=    0.000
 RMSDP=1.53D-05 MaxDP=3.40D-04 DE=-5.84D-06 OVMax= 8.80D-05

 Density matrix breaks symmetry, PCut= 1.00D-07
 Density has only Abelian symmetry.
 Cycle   7  Pass 1  IDiag  1:
 E= -294.661502986182     Delta-E=       -0.000000028148 Rises=F Damp=F
 DIIS: error= 3.28D-06 at cycle   7 NSaved=   7.
 NSaved= 7 IEnMin= 7 EnMin= -294.661502986182     IErMin= 7 ErrMin= 3.28D-06
 ErrMax= 3.28D-06 EMaxC= 1.00D-01 BMatC= 8.70D-10 BMatP= 5.03D-08
 IDIUse=1 WtCom= 1.00D+00 WtEn= 0.00D+00
 Coeff-Com: -0.798D-03 0.108D-02-0.997D-03-0.401D-01 0.121D+00-0.387D+00
 Coeff-Com:  0.131D+01
 Coeff:     -0.798D-03 0.108D-02-0.997D-03-0.401D-01 0.121D+00-0.387D+00
 Coeff:      0.131D+01
 Gap=     0.623 Goal=   None    Shift=    0.000
 Gap=     0.333 Goal=   None    Shift=    0.000
 RMSDP=2.40D-06 MaxDP=6.23D-05 DE=-2.81D-08 OVMax= 1.39D-05

 Density matrix breaks symmetry, PCut= 1.00D-07
 Density has only Abelian symmetry.
 Cycle   8  Pass 1  IDiag  1:
 E= -294.661502986736     Delta-E=       -0.000000000554 Rises=F Damp=F
 DIIS: error= 9.03D-07 at cycle   8 NSaved=   8.
 NSaved= 8 IEnMin= 8 EnMin= -294.661502986736     IErMin= 8 ErrMin= 9.03D-07
 ErrMax= 9.03D-07 EMaxC= 1.00D-01 BMatC= 5.50D-11 BMatP= 8.70D-10
 IDIUse=1 WtCom= 1.00D+00 WtEn= 0.00D+00
 Coeff-Com: -0.985D-05 0.921D-05 0.180D-03 0.957D-02-0.299D-01 0.111D+00
 Coeff-Com: -0.574D+00 0.148D+01
 Coeff:     -0.985D-05 0.921D-05 0.180D-03 0.957D-02-0.299D-01 0.111D+00
 Coeff:     -0.574D+00 0.148D+01
 Gap=     0.623 Goal=   None    Shift=    0.000
 Gap=     0.333 Goal=   None    Shift=    0.000
 RMSDP=7.03D-07 MaxDP=1.45D-05 DE=-5.54D-10 OVMax= 3.85D-06

 Density matrix breaks symmetry, PCut= 1.00D-07
 Density has only Abelian symmetry.
 Cycle   9  Pass 1  IDiag  1:
 E= -294.661502986780     Delta-E=       -0.000000000044 Rises=F Damp=F
 DIIS: error= 2.04D-07 at cycle   9 NSaved=   9.
 NSaved= 9 IEnMin= 9 EnMin= -294.661502986780     IErMin= 9 ErrMin= 2.04D-07
 ErrMax= 2.04D-07 EMaxC= 1.00D-01 BMatC= 2.06D-12 BMatP= 5.50D-11
 IDIUse=1 WtCom= 1.00D+00 WtEn= 0.00D+00
 Coeff-Com:  0.189D-04-0.245D-04-0.270D-04-0.154D-02 0.496D-02-0.205D-01
 Coeff-Com:  0.129D+00-0.497D+00 0.138D+01
 Coeff:      0.189D-04-0.245D-04-0.270D-04-0.154D-02 0.496D-02-0.205D-01
 Coeff:      0.129D+00-0.497D+00 0.138D+01
 Gap=     0.623 Goal=   None    Shift=    0.000
 Gap=     0.333 Goal=   None    Shift=    0.000
 RMSDP=1.52D-07 MaxDP=3.35D-06 DE=-4.41D-11 OVMax= 8.66D-07

 Density matrix breaks symmetry, PCut= 1.00D-07
 Density has only Abelian symmetry.
 Cycle  10  Pass 1  IDiag  1:
 E= -294.661502986782     Delta-E=       -0.000000000002 Rises=F Damp=F
 DIIS: error= 4.78D-08 at cycle  10 NSaved=  10.
 NSaved=10 IEnMin=10 EnMin= -294.661502986782     IErMin=10 ErrMin= 4.78D-08
 ErrMax= 4.78D-08 EMaxC= 1.00D-01 BMatC= 6.17D-14 BMatP= 2.06D-12
 IDIUse=1 WtCom= 1.00D+00 WtEn= 0.00D+00
 Coeff-Com:  0.229D-06-0.402D-06 0.481D-05 0.189D-03-0.614D-03 0.259D-02
 Coeff-Com: -0.174D-01 0.918D-01-0.430D+00 0.135D+01
 Coeff:      0.229D-06-0.402D-06 0.481D-05 0.189D-03-0.614D-03 0.259D-02
 Coeff:     -0.174D-01 0.918D-01-0.430D+00 0.135D+01
 Gap=     0.623 Goal=   None    Shift=    0.000
 Gap=     0.333 Goal=   None    Shift=    0.000
 RMSDP=2.76D-08 MaxDP=9.23D-07 DE=-1.93D-12 OVMax= 2.23D-07

 Density matrix breaks symmetry, PCut= 1.00D-07
 Density has only Abelian symmetry.
 Cycle  11  Pass 1  IDiag  1:
 E= -294.661502986782     Delta-E=        0.000000000000 Rises=F Damp=F
 DIIS: error= 1.43D-09 at cycle  11 NSaved=  11.
 NSaved=11 IEnMin=10 EnMin= -294.661502986782     IErMin=11 ErrMin= 1.43D-09
 ErrMax= 1.43D-09 EMaxC= 1.00D-01 BMatC= 1.35D-16 BMatP= 6.17D-14
 IDIUse=1 WtCom= 1.00D+00 WtEn= 0.00D+00
 Coeff-Com:  0.503D-07-0.569D-07-0.468D-06-0.181D-04 0.599D-04-0.261D-03
 Coeff-Com:  0.197D-02-0.116D-01 0.588D-01-0.211D+00 0.116D+01
 Coeff:      0.503D-07-0.569D-07-0.468D-06-0.181D-04 0.599D-04-0.261D-03
 Coeff:      0.197D-02-0.116D-01 0.588D-01-0.211D+00 0.116D+01
 Gap=     0.623 Goal=   None    Shift=    0.000
 Gap=     0.333 Goal=   None    Shift=    0.000
 RMSDP=9.65D-10 MaxDP=3.08D-08 DE= 0.00D+00 OVMax= 6.72D-09

 Density matrix breaks symmetry, PCut= 1.00D-07
 Density has only Abelian symmetry.
 SCF Done:  E(UHF) =  -294.661502987     A.U. after   11 cycles
             Convg  =    0.9653D-09             -V/T =  3.6594
             S**2   =   0.7596
 KE= 1.108005977684D+02 PE=-6.244622303323D+02 EE= 2.190001295771D+02
 Annihilation of the first spin contaminant:
 S**2 before annihilation     0.7596,   after     0.7500
 Leave Link  502 at Mon Aug 12 23:14:51 2013, MaxMem=  134217728 cpu:       3.8
 (Enter /usr/local/lib/g03/l801.exe)
 Range of M.O.s used for correlation:     1    39
 NBasis=    39 NAE=    13 NBE=    12 NFC=     0 NFV=     0
 NROrb=     39 NOA=    13 NOB=    12 NVA=    26 NVB=    27
 Leave Link  801 at Mon Aug 12 23:15:04 2013, MaxMem=  134217728 cpu:       0.0
 (Enter /usr/local/lib/g03/l906.exe)
 FulOut=F Deriv=T AODrv=T NAtomX=     1
   MMem=        2456  MDisk=          13 MDiskD=          13
  W3Min=       45630 MinDsk=       94145 NBas6D=          45
 NBas2D=        1137    NTT=        1035    LW2=     3500000
    MDV=   134206103 MDiskM=       14689 NBas2p=        1137
 Fully direct method using O(ONN) memory.
 IMap=   1   2   3   4   5   6   7   8   9  10  11  12  13
 JobTyp=2 Pass  1:  I=   1 to  13 NPSUse=  1 ParTrn=F ParDer=F DoDerP=T.
 IMap=   1   2   3   4   5   6   7   8   9  10  11  12
 JobTyp=3 Pass  1:  I=   1 to  12 NPSUse=  1 ParTrn=F ParDer=F DoDerP=T.
 Spin components of T(2) and E(2):
     alpha-alpha T2 =       0.1133118416D-01 E2=     -0.3528871256D-01
     alpha-beta  T2 =       0.4782673865D-01 E2=     -0.1429296201D+00
     beta-beta   T2 =       0.6566726306D-02 E2=     -0.2421431093D-01
 The integrals were generated   2 times.
 (S**2,0)=  0.75960D+00           (S**2,1)=  0.75042D+00
 E(PUHF)=      -0.29466441122D+03        E(PMP2)=      -0.29486545599D+03
 ANorm=    0.1032339406D+01
 E2 =    -0.2024326436D+00 EUMP2 =    -0.29486393563038D+03
 Leave Link  906 at Mon Aug 12 23:16:05 2013, MaxMem=  134217728 cpu:      47.8
 (Enter /usr/local/lib/g03/l1002.exe)
 Minotr:  UHF wavefunction.
          Computing MP2 derivatives.
          Using Z-Vector for PSCF gradient.
          Skipping F1 and S1 gradient terms here.
 DoAtom=T
          Direct CPHF calculation.
          Solving linear equations simultaneously.
          Differentiating once with respect to electric field.
                with respect to dipole field.
          Differentiating once with respect to nuclear coordinates.
          Using symmetry in CPHF.
          Requested convergence is 1.0D-10 RMS, and 1.0D-09 maximum.
          Secondary convergence is 1.0D-12 RMS, and 1.0D-12 maximum.
          NewPWx=F KeepS1=T KeepF1=T KeepIn=T MapXYZ=F.
          MDV=     134217719 using IRadAn=       0.
          Store integrals in memory, NReq=     3012977.
 Symmetry not used in FoFDir.
 MinBra= 0 MaxBra= 3 Meth= 1.
 IRaf=       0 NMat=   1 IRICut=       1 DoRegI=T DoRafI=F ISym2E= 0 JSym2E=0.
          There are   1 degrees of freedom in the 1st order CPHF.
     1 vectors were produced by pass  0.
 AX will form   1 AO Fock derivatives at one time.
     1 vectors were produced by pass  1.
     1 vectors were produced by pass  2.
     1 vectors were produced by pass  3.
     1 vectors were produced by pass  4.
     1 vectors were produced by pass  5.
     1 vectors were produced by pass  6.
     1 vectors were produced by pass  7.
     1 vectors were produced by pass  8.
 Inv2:  IOpt= 1 Iter= 1 AM= 3.74D-16 Conv= 1.00D-12.
 Inverted reduced A of dimension    9 with in-core refinement.
 End of Minotr Frequency-dependent properties file   721 does not exist.
 Leave Link 1002 at Mon Aug 12 23:16:22 2013, MaxMem=  134217728 cpu:       3.2
 (Enter /usr/local/lib/g03/l601.exe)
 Copying SCF densities to generalized density rwf, ISCF=1 IROHF=0.

 **********************************************************************

            Population analysis using the MP2 density.

 **********************************************************************

 Orbital symmetries:
 Alpha Orbitals:
       Occupied  (A1G) (T1U) (T1U) (T1U) (?A) (T2G) (T2G) (T2G)
                 (?A) (?A) (?B) (?B) (?B)
       Virtual   (?A) (?A) (T2G) (T2G) (T2G) (?A) (?B) (?B) (?B)
                 (?B) (?B) (?B) (A2U) (?B) (?B) (?B) (?A) (?A)
                 (T2G) (T2G) (T2G) (?A) (T1U) (T1U) (T1U) (A1G)
 Beta  Orbitals:
       Occupied  (A1G) (T1U) (T1U) (T1U) (EG) (T2G) (T2G) (EG)
                 (T2G) (?A) (?B) (?B)
       Virtual   (?B) (A1G) (?C) (?A) (?C) (?C) (?A) (?B) (?B)
                 (?B) (?B) (?B) (?B) (A2U) (?B) (?B) (?B) (A1G)
                 (?C) (?A) (?C) (?C) (?A) (T1U) (T1U) (T1U) (A1G)
 Unable to determine electronic state:  an orbital has unidentified symmetry.
 Alpha  occ. eigenvalues --   -7.74895  -5.58940  -5.56608  -5.56608  -2.31315
 Alpha  occ. eigenvalues --   -2.30679  -2.30679  -2.28801  -2.28801  -0.92227
 Alpha  occ. eigenvalues --   -0.45918  -0.39919  -0.39919
 Alpha virt. eigenvalues --    0.22368   0.34920   0.35800   0.35800   0.38935
 Alpha virt. eigenvalues --    0.38935   0.39634   0.42624   0.42624   1.10480
 Alpha virt. eigenvalues --    1.11029   1.11029   1.12709   1.12709   1.15709
 Alpha virt. eigenvalues --    1.15709   1.25787   1.56020   1.56963   1.56963
 Alpha virt. eigenvalues --    1.60146   1.60146   2.71726   2.75621   2.75621
 Alpha virt. eigenvalues --   58.89520
  Beta  occ. eigenvalues --   -7.74122  -5.56838  -5.56496  -5.56496  -2.30129
  Beta  occ. eigenvalues --   -2.29775  -2.29775  -2.28759  -2.28759  -0.83275
  Beta  occ. eigenvalues --   -0.38202  -0.38202
  Beta virt. eigenvalues --   -0.04893   0.23555   0.39143   0.39143   0.41248
  Beta virt. eigenvalues --    0.41248   0.42043   0.43138   0.43138   0.45326
  Beta virt. eigenvalues --    1.15447   1.15494   1.15494   1.15612   1.15612
  Beta virt. eigenvalues --    1.15739   1.15739   1.27349   1.60406   1.60406
  Beta virt. eigenvalues --    1.60594   1.60594   1.60650   2.75775   2.76133
  Beta virt. eigenvalues --    2.76133  58.89726
     Alpha Molecular Orbital Coefficients
                           1         2         3         4         5
                       (A1G)--O  (T1U)--O  (T1U)--O  (T1U)--O      O
     EIGENVALUES --    -7.74895  -5.58940  -5.56608  -5.56608  -2.31315
   1 1   I  1S          0.99980   0.00000   0.00000   0.00000  -0.00251
   2        2S         -0.00056   0.00000   0.00000   0.00000   0.01428
   3        3S         -0.00067   0.00000   0.00000   0.00000   0.00405
   4        4S          0.00157   0.00000   0.00000   0.00000  -0.00513
   5        5S         -0.00033   0.00000   0.00000   0.00000  -0.00278
   6        6PX         0.00000   0.00000   0.00000   1.00112   0.00000
   7        6PY         0.00000   0.00000   1.00112   0.00000   0.00000
   8        6PZ         0.00000   0.99990   0.00000   0.00000   0.00000
   9        7PX         0.00000   0.00000   0.00000  -0.00050   0.00000
  10        7PY         0.00000   0.00000  -0.00050   0.00000   0.00000
  11        7PZ         0.00000  -0.00020   0.00000   0.00000   0.00000
  12        8PX         0.00000   0.00000   0.00000  -0.00144   0.00000
  13        8PY         0.00000   0.00000  -0.00144   0.00000   0.00000
  14        8PZ         0.00000   0.00026   0.00000   0.00000   0.00000
  15        9PX         0.00000   0.00000   0.00000  -0.00044   0.00000
  16        9PY         0.00000   0.00000  -0.00044   0.00000   0.00000
  17        9PZ         0.00000  -0.00059   0.00000   0.00000   0.00000
  18       10D 0        0.00328   0.00000   0.00000   0.00000   0.99688
  19       10D+1        0.00000   0.00000   0.00000   0.00000   0.00000
  20       10D-1        0.00000   0.00000   0.00000   0.00000   0.00000
  21       10D+2        0.00000   0.00000   0.00000   0.00000   0.00000
  22       10D-2        0.00000   0.00000   0.00000   0.00000   0.00000
  23       11D 0       -0.00021   0.00000   0.00000   0.00000   0.00501
  24       11D+1        0.00000   0.00000   0.00000   0.00000   0.00000
  25       11D-1        0.00000   0.00000   0.00000   0.00000   0.00000
  26       11D+2        0.00000   0.00000   0.00000   0.00000   0.00000
  27       11D-2        0.00000   0.00000   0.00000   0.00000   0.00000
  28       12D 0        0.00000   0.00000   0.00000   0.00000   0.00072
  29       12D+1        0.00000   0.00000   0.00000   0.00000   0.00000
  30       12D-1        0.00000   0.00000   0.00000   0.00000   0.00000
  31       12D+2        0.00000   0.00000   0.00000   0.00000   0.00000
  32       12D-2        0.00000   0.00000   0.00000   0.00000   0.00000
  33       13F 0        0.00000   0.00097   0.00000   0.00000   0.00000
  34       13F+1        0.00000   0.00000   0.00000   0.00080   0.00000
  35       13F-1        0.00000   0.00000   0.00080   0.00000   0.00000
  36       13F+2        0.00000   0.00000   0.00000   0.00000   0.00000
  37       13F-2        0.00000   0.00000   0.00000   0.00000   0.00000
  38       13F+3        0.00000   0.00000   0.00000   0.00000   0.00000
  39       13F-3        0.00000   0.00000   0.00000   0.00000   0.00000
                           6         7         8         9        10
                       (T2G)--O  (T2G)--O  (T2G)--O      O         O
     EIGENVALUES --    -2.30679  -2.30679  -2.28801  -2.28801  -0.92227
   1 1   I  1S          0.00000   0.00000   0.00000   0.00000  -0.00206
   2        2S          0.00000   0.00000   0.00000   0.00000   0.99063
   3        3S          0.00000   0.00000   0.00000   0.00000  -0.01429
   4        4S          0.00000   0.00000   0.00000   0.00000   0.03375
   5        5S          0.00000   0.00000   0.00000   0.00000  -0.01298
   6        6PX         0.00000   0.00000   0.00000   0.00000   0.00000
   7        6PY         0.00000   0.00000   0.00000   0.00000   0.00000
   8        6PZ         0.00000   0.00000   0.00000   0.00000   0.00000
   9        7PX         0.00000   0.00000   0.00000   0.00000   0.00000
  10        7PY         0.00000   0.00000   0.00000   0.00000   0.00000
  11        7PZ         0.00000   0.00000   0.00000   0.00000   0.00000
  12        8PX         0.00000   0.00000   0.00000   0.00000   0.00000
  13        8PY         0.00000   0.00000   0.00000   0.00000   0.00000
  14        8PZ         0.00000   0.00000   0.00000   0.00000   0.00000
  15        9PX         0.00000   0.00000   0.00000   0.00000   0.00000
  16        9PY         0.00000   0.00000   0.00000   0.00000   0.00000
  17        9PZ         0.00000   0.00000   0.00000   0.00000   0.00000
  18       10D 0        0.00000   0.00000   0.00000   0.00000  -0.02942
  19       10D+1        0.00000   0.99773   0.00000   0.00000   0.00000
  20       10D-1        0.99773   0.00000   0.00000   0.00000   0.00000
  21       10D+2        0.00000   0.00000   0.00000   0.99995   0.00000
  22       10D-2        0.00000   0.00000   0.99995   0.00000   0.00000
  23       11D 0        0.00000   0.00000   0.00000   0.00000   0.02440
  24       11D+1        0.00000   0.00361   0.00000   0.00000   0.00000
  25       11D-1        0.00361   0.00000   0.00000   0.00000   0.00000
  26       11D+2        0.00000   0.00000   0.00000  -0.00037   0.00000
  27       11D-2        0.00000   0.00000  -0.00037   0.00000   0.00000
  28       12D 0        0.00000   0.00000   0.00000   0.00000   0.02096
  29       12D+1        0.00000   0.00078   0.00000   0.00000   0.00000
  30       12D-1        0.00078   0.00000   0.00000   0.00000   0.00000
  31       12D+2        0.00000   0.00000   0.00000   0.00106   0.00000
  32       12D-2        0.00000   0.00000   0.00106   0.00000   0.00000
  33       13F 0        0.00000   0.00000   0.00000   0.00000   0.00000
  34       13F+1        0.00000   0.00000   0.00000   0.00000   0.00000
  35       13F-1        0.00000   0.00000   0.00000   0.00000   0.00000
  36       13F+2        0.00000   0.00000   0.00000   0.00000   0.00000
  37       13F-2        0.00000   0.00000   0.00000   0.00000   0.00000
  38       13F+3        0.00000   0.00000   0.00000   0.00000   0.00000
  39       13F-3        0.00000   0.00000   0.00000   0.00000   0.00000
                          11        12        13        14        15
                           O         O         O         V         V
     EIGENVALUES --    -0.45918  -0.39919  -0.39919   0.22368   0.34920
   1 1   I  1S          0.00000   0.00000   0.00000  -0.02227  -0.00971
   2        2S          0.00000   0.00000   0.00000   0.39194  -0.05681
   3        3S          0.00000   0.00000   0.00000  -0.86056  -0.11103
   4        4S          0.00000   0.00000   0.00000   3.95518   0.35024
   5        5S          0.00000   0.00000   0.00000  -3.76540  -0.24097
   6        6PX         0.00000   0.00118   0.00000   0.00000   0.00000
   7        6PY         0.00000   0.00000   0.00118   0.00000   0.00000
   8        6PZ         0.02208   0.00000   0.00000   0.00000   0.00000
   9        7PX         0.00000   0.99823   0.00000   0.00000   0.00000
  10        7PY         0.00000   0.00000   0.99823   0.00000   0.00000
  11        7PZ         1.06400   0.00000   0.00000   0.00000   0.00000
  12        8PX         0.00000   0.00026   0.00000   0.00000   0.00000
  13        8PY         0.00000   0.00000   0.00026   0.00000   0.00000
  14        8PZ        -0.01572   0.00000   0.00000   0.00000   0.00000
  15        9PX         0.00000   0.00153   0.00000   0.00000   0.00000
  16        9PY         0.00000   0.00000   0.00153   0.00000   0.00000
  17        9PZ        -0.06481   0.00000   0.00000   0.00000   0.00000
  18       10D 0        0.00000   0.00000   0.00000  -0.00032  -0.24519
  19       10D+1        0.00000   0.00000   0.00000   0.00000   0.00000
  20       10D-1        0.00000   0.00000   0.00000   0.00000   0.00000
  21       10D+2        0.00000   0.00000   0.00000   0.00000   0.00000
  22       10D-2        0.00000   0.00000   0.00000   0.00000   0.00000
  23       11D 0        0.00000   0.00000   0.00000   0.02684  -0.03001
  24       11D+1        0.00000   0.00000   0.00000   0.00000   0.00000
  25       11D-1        0.00000   0.00000   0.00000   0.00000   0.00000
  26       11D+2        0.00000   0.00000   0.00000   0.00000   0.00000
  27       11D-2        0.00000   0.00000   0.00000   0.00000   0.00000
  28       12D 0        0.00000   0.00000   0.00000  -0.06801   1.04805
  29       12D+1        0.00000   0.00000   0.00000   0.00000   0.00000
  30       12D-1        0.00000   0.00000   0.00000   0.00000   0.00000
  31       12D+2        0.00000   0.00000   0.00000   0.00000   0.00000
  32       12D-2        0.00000   0.00000   0.00000   0.00000   0.00000
  33       13F 0        0.02840   0.00000   0.00000   0.00000   0.00000
  34       13F+1        0.00000   0.02424   0.00000   0.00000   0.00000
  35       13F-1        0.00000   0.00000   0.02424   0.00000   0.00000
  36       13F+2        0.00000   0.00000   0.00000   0.00000   0.00000
  37       13F-2        0.00000   0.00000   0.00000   0.00000   0.00000
  38       13F+3        0.00000   0.00000   0.00000   0.00000   0.00000
  39       13F-3        0.00000   0.00000   0.00000   0.00000   0.00000
                          16        17        18        19        20
                       (T2G)--V  (T2G)--V  (T2G)--V      V         V
     EIGENVALUES --     0.35800   0.35800   0.38935   0.38935   0.39634
   1 1   I  1S          0.00000   0.00000   0.00000   0.00000   0.00000
   2        2S          0.00000   0.00000   0.00000   0.00000   0.00000
   3        3S          0.00000   0.00000   0.00000   0.00000   0.00000
   4        4S          0.00000   0.00000   0.00000   0.00000   0.00000
   5        5S          0.00000   0.00000   0.00000   0.00000   0.00000
   6        6PX         0.00000   0.00000   0.00000   0.00000   0.00000
   7        6PY         0.00000   0.00000   0.00000   0.00000   0.00000
   8        6PZ         0.00000   0.00000   0.00000   0.00000  -0.69516
   9        7PX         0.00000   0.00000   0.00000   0.00000   0.00000
  10        7PY         0.00000   0.00000   0.00000   0.00000   0.00000
  11        7PZ         0.00000   0.00000   0.00000   0.00000  -2.35999
  12        8PX         0.00000   0.00000   0.00000   0.00000   0.00000
  13        8PY         0.00000   0.00000   0.00000   0.00000   0.00000
  14        8PZ         0.00000   0.00000   0.00000   0.00000   0.42570
  15        9PX         0.00000   0.00000   0.00000   0.00000   0.00000
  16        9PY         0.00000   0.00000   0.00000   0.00000   0.00000
  17        9PZ         0.00000   0.00000   0.00000   0.00000   2.48036
  18       10D 0        0.00000   0.00000   0.00000   0.00000   0.00000
  19       10D+1       -0.24364   0.00000   0.00000   0.00000   0.00000
  20       10D-1        0.00000  -0.24364   0.00000   0.00000   0.00000
  21       10D+2        0.00000   0.00000   0.00000  -0.23639   0.00000
  22       10D-2        0.00000   0.00000  -0.23639   0.00000   0.00000
  23       11D 0        0.00000   0.00000   0.00000   0.00000   0.00000
  24       11D+1       -0.03374   0.00000   0.00000   0.00000   0.00000
  25       11D-1        0.00000  -0.03374   0.00000   0.00000   0.00000
  26       11D+2        0.00000   0.00000   0.00000  -0.04599   0.00000
  27       11D-2        0.00000   0.00000  -0.04599   0.00000   0.00000
  28       12D 0        0.00000   0.00000   0.00000   0.00000   0.00000
  29       12D+1        1.05234   0.00000   0.00000   0.00000   0.00000
  30       12D-1        0.00000   1.05234   0.00000   0.00000   0.00000
  31       12D+2        0.00000   0.00000   0.00000   1.05962   0.00000
  32       12D-2        0.00000   0.00000   1.05962   0.00000   0.00000
  33       13F 0        0.00000   0.00000   0.00000   0.00000  -0.01770
  34       13F+1        0.00000   0.00000   0.00000   0.00000   0.00000
  35       13F-1        0.00000   0.00000   0.00000   0.00000   0.00000
  36       13F+2        0.00000   0.00000   0.00000   0.00000   0.00000
  37       13F-2        0.00000   0.00000   0.00000   0.00000   0.00000
  38       13F+3        0.00000   0.00000   0.00000   0.00000   0.00000
  39       13F-3        0.00000   0.00000   0.00000   0.00000   0.00000
                          21        22        23        24        25
                           V         V         V         V         V
     EIGENVALUES --     0.42624   0.42624   1.10480   1.11029   1.11029
   1 1   I  1S          0.00000   0.00000   0.00000   0.00000   0.00000
   2        2S          0.00000   0.00000   0.00000   0.00000   0.00000
   3        3S          0.00000   0.00000   0.00000   0.00000   0.00000
   4        4S          0.00000   0.00000   0.00000   0.00000   0.00000
   5        5S          0.00000   0.00000   0.00000   0.00000   0.00000
   6        6PX        -0.70729   0.00000   0.00000  -0.00224   0.00000
   7        6PY         0.00000  -0.70729   0.00000   0.00000  -0.00224
   8        6PZ         0.00000   0.00000  -0.00143   0.00000   0.00000
   9        7PX        -2.40146   0.00000   0.00000  -0.04954   0.00000
  10        7PY         0.00000  -2.40146   0.00000   0.00000  -0.04954
  11        7PZ         0.00000   0.00000  -0.05493   0.00000   0.00000
  12        8PX         0.43912   0.00000   0.00000  -0.00483   0.00000
  13        8PY         0.00000   0.43912   0.00000   0.00000  -0.00483
  14        8PZ         0.00000   0.00000  -0.00677   0.00000   0.00000
  15        9PX         2.49092   0.00000   0.00000   0.03187   0.00000
  16        9PY         0.00000   2.49092   0.00000   0.00000   0.03187
  17        9PZ         0.00000   0.00000   0.03494   0.00000   0.00000
  18       10D 0        0.00000   0.00000   0.00000   0.00000   0.00000
  19       10D+1        0.00000   0.00000   0.00000   0.00000   0.00000
  20       10D-1        0.00000   0.00000   0.00000   0.00000   0.00000
  21       10D+2        0.00000   0.00000   0.00000   0.00000   0.00000
  22       10D-2        0.00000   0.00000   0.00000   0.00000   0.00000
  23       11D 0        0.00000   0.00000   0.00000   0.00000   0.00000
  24       11D+1        0.00000   0.00000   0.00000   0.00000   0.00000
  25       11D-1        0.00000   0.00000   0.00000   0.00000   0.00000
  26       11D+2        0.00000   0.00000   0.00000   0.00000   0.00000
  27       11D-2        0.00000   0.00000   0.00000   0.00000   0.00000
  28       12D 0        0.00000   0.00000   0.00000   0.00000   0.00000
  29       12D+1        0.00000   0.00000   0.00000   0.00000   0.00000
  30       12D-1        0.00000   0.00000   0.00000   0.00000   0.00000
  31       12D+2        0.00000   0.00000   0.00000   0.00000   0.00000
  32       12D-2        0.00000   0.00000   0.00000   0.00000   0.00000
  33       13F 0        0.00000   0.00000   0.99943   0.00000   0.00000
  34       13F+1       -0.01633   0.00000   0.00000   0.99957   0.00000
  35       13F-1        0.00000  -0.01633   0.00000   0.00000   0.99957
  36       13F+2        0.00000   0.00000   0.00000   0.00000   0.00000
  37       13F-2        0.00000   0.00000   0.00000   0.00000   0.00000
  38       13F+3        0.00000   0.00000   0.00000   0.00000   0.00000
  39       13F-3        0.00000   0.00000   0.00000   0.00000   0.00000
                          26        27        28        29        30
                       (A2U)--V      V         V         V         V
     EIGENVALUES --     1.12709   1.12709   1.15709   1.15709   1.25787
   1 1   I  1S          0.00000   0.00000   0.00000   0.00000  -0.53729
   2        2S          0.00000   0.00000   0.00000   0.00000  -2.59325
   3        3S          0.00000   0.00000   0.00000   0.00000  -4.17220
   4        4S          0.00000   0.00000   0.00000   0.00000   9.30110
   5        5S          0.00000   0.00000   0.00000   0.00000  -3.15269
   6        6PX         0.00000   0.00000   0.00000   0.00000   0.00000
   7        6PY         0.00000   0.00000   0.00000   0.00000   0.00000
   8        6PZ         0.00000   0.00000   0.00000   0.00000   0.00000
   9        7PX         0.00000   0.00000   0.00000   0.00000   0.00000
  10        7PY         0.00000   0.00000   0.00000   0.00000   0.00000
  11        7PZ         0.00000   0.00000   0.00000   0.00000   0.00000
  12        8PX         0.00000   0.00000   0.00000   0.00000   0.00000
  13        8PY         0.00000   0.00000   0.00000   0.00000   0.00000
  14        8PZ         0.00000   0.00000   0.00000   0.00000   0.00000
  15        9PX         0.00000   0.00000   0.00000   0.00000   0.00000
  16        9PY         0.00000   0.00000   0.00000   0.00000   0.00000
  17        9PZ         0.00000   0.00000   0.00000   0.00000   0.00000
  18       10D 0        0.00000   0.00000   0.00000   0.00000   0.02438
  19       10D+1        0.00000   0.00000   0.00000   0.00000   0.00000
  20       10D-1        0.00000   0.00000   0.00000   0.00000   0.00000
  21       10D+2        0.00000   0.00000   0.00000   0.00000   0.00000
  22       10D-2        0.00000   0.00000   0.00000   0.00000   0.00000
  23       11D 0        0.00000   0.00000   0.00000   0.00000  -0.04395
  24       11D+1        0.00000   0.00000   0.00000   0.00000   0.00000
  25       11D-1        0.00000   0.00000   0.00000   0.00000   0.00000
  26       11D+2        0.00000   0.00000   0.00000   0.00000   0.00000
  27       11D-2        0.00000   0.00000   0.00000   0.00000   0.00000
  28       12D 0        0.00000   0.00000   0.00000   0.00000   0.00945
  29       12D+1        0.00000   0.00000   0.00000   0.00000   0.00000
  30       12D-1        0.00000   0.00000   0.00000   0.00000   0.00000
  31       12D+2        0.00000   0.00000   0.00000   0.00000   0.00000
  32       12D-2        0.00000   0.00000   0.00000   0.00000   0.00000
  33       13F 0        0.00000   0.00000   0.00000   0.00000   0.00000
  34       13F+1        0.00000   0.00000   0.00000   0.00000   0.00000
  35       13F-1        0.00000   0.00000   0.00000   0.00000   0.00000
  36       13F+2        0.00000   1.00000   0.00000   0.00000   0.00000
  37       13F-2        1.00000   0.00000   0.00000   0.00000   0.00000
  38       13F+3        0.00000   0.00000   0.00000   1.00000   0.00000
  39       13F-3        0.00000   0.00000   1.00000   0.00000   0.00000
                          31        32        33        34        35
                           V     (T2G)--V  (T2G)--V  (T2G)--V      V
     EIGENVALUES --     1.56020   1.56963   1.56963   1.60146   1.60146
   1 1   I  1S         -0.01345   0.00000   0.00000   0.00000   0.00000
   2        2S         -0.08613   0.00000   0.00000   0.00000   0.00000
   3        3S         -0.09281   0.00000   0.00000   0.00000   0.00000
   4        4S          0.17822   0.00000   0.00000   0.00000   0.00000
   5        5S         -0.02522   0.00000   0.00000   0.00000   0.00000
   6        6PX         0.00000   0.00000   0.00000   0.00000   0.00000
   7        6PY         0.00000   0.00000   0.00000   0.00000   0.00000
   8        6PZ         0.00000   0.00000   0.00000   0.00000   0.00000
   9        7PX         0.00000   0.00000   0.00000   0.00000   0.00000
  10        7PY         0.00000   0.00000   0.00000   0.00000   0.00000
  11        7PZ         0.00000   0.00000   0.00000   0.00000   0.00000
  12        8PX         0.00000   0.00000   0.00000   0.00000   0.00000
  13        8PY         0.00000   0.00000   0.00000   0.00000   0.00000
  14        8PZ         0.00000   0.00000   0.00000   0.00000   0.00000
  15        9PX         0.00000   0.00000   0.00000   0.00000   0.00000
  16        9PY         0.00000   0.00000   0.00000   0.00000   0.00000
  17        9PZ         0.00000   0.00000   0.00000   0.00000   0.00000
  18       10D 0       -0.74992   0.00000   0.00000   0.00000   0.00000
  19       10D+1        0.00000  -0.75027   0.00000   0.00000   0.00000
  20       10D-1        0.00000   0.00000  -0.75027   0.00000   0.00000
  21       10D+2        0.00000   0.00000   0.00000   0.00000  -0.74964
  22       10D-2        0.00000   0.00000   0.00000  -0.74964   0.00000
  23       11D 0        1.75448   0.00000   0.00000   0.00000   0.00000
  24       11D+1        0.00000   1.75534   0.00000   0.00000   0.00000
  25       11D-1        0.00000   0.00000   1.75534   0.00000   0.00000
  26       11D+2        0.00000   0.00000   0.00000   0.00000   1.75507
  27       11D-2        0.00000   0.00000   0.00000   1.75507   0.00000
  28       12D 0       -1.04843   0.00000   0.00000   0.00000   0.00000
  29       12D+1        0.00000  -1.04660   0.00000   0.00000   0.00000
  30       12D-1        0.00000   0.00000  -1.04660   0.00000   0.00000
  31       12D+2        0.00000   0.00000   0.00000   0.00000  -1.03922
  32       12D-2        0.00000   0.00000   0.00000  -1.03922   0.00000
  33       13F 0        0.00000   0.00000   0.00000   0.00000   0.00000
  34       13F+1        0.00000   0.00000   0.00000   0.00000   0.00000
  35       13F-1        0.00000   0.00000   0.00000   0.00000   0.00000
  36       13F+2        0.00000   0.00000   0.00000   0.00000   0.00000
  37       13F-2        0.00000   0.00000   0.00000   0.00000   0.00000
  38       13F+3        0.00000   0.00000   0.00000   0.00000   0.00000
  39       13F-3        0.00000   0.00000   0.00000   0.00000   0.00000
                          36        37        38        39
                       (T1U)--V  (T1U)--V  (T1U)--V  (A1G)--V
     EIGENVALUES --     2.71726   2.75621   2.75621  58.89520
   1 1   I  1S          0.00000   0.00000   0.00000   6.37181
   2        2S          0.00000   0.00000   0.00000   7.66329
   3        3S          0.00000   0.00000   0.00000  -5.31182
   4        4S          0.00000   0.00000   0.00000  -3.21291
   5        5S          0.00000   0.00000   0.00000  -1.95711
   6        6PX         0.00000   0.00000   3.41466   0.00000
   7        6PY         0.00000   3.41466   0.00000   0.00000
   8        6PZ         3.41744   0.00000   0.00000   0.00000
   9        7PX         0.00000   0.00000   4.67541   0.00000
  10        7PY         0.00000   4.67541   0.00000   0.00000
  11        7PZ         4.68196   0.00000   0.00000   0.00000
  12        8PX         0.00000   0.00000  -4.03979   0.00000
  13        8PY         0.00000  -4.03979   0.00000   0.00000
  14        8PZ        -4.04119   0.00000   0.00000   0.00000
  15        9PX         0.00000   0.00000  -2.95456   0.00000
  16        9PY         0.00000  -2.95456   0.00000   0.00000
  17        9PZ        -2.96268   0.00000   0.00000   0.00000
  18       10D 0        0.00000   0.00000   0.00000  -0.00003
  19       10D+1        0.00000   0.00000   0.00000   0.00000
  20       10D-1        0.00000   0.00000   0.00000   0.00000
  21       10D+2        0.00000   0.00000   0.00000   0.00000
  22       10D-2        0.00000   0.00000   0.00000   0.00000
  23       11D 0        0.00000   0.00000   0.00000   0.00009
  24       11D+1        0.00000   0.00000   0.00000   0.00000
  25       11D-1        0.00000   0.00000   0.00000   0.00000
  26       11D+2        0.00000   0.00000   0.00000   0.00000
  27       11D-2        0.00000   0.00000   0.00000   0.00000
  28       12D 0        0.00000   0.00000   0.00000  -0.00005
  29       12D+1        0.00000   0.00000   0.00000   0.00000
  30       12D-1        0.00000   0.00000   0.00000   0.00000
  31       12D+2        0.00000   0.00000   0.00000   0.00000
  32       12D-2        0.00000   0.00000   0.00000   0.00000
  33       13F 0       -0.00365   0.00000   0.00000   0.00000
  34       13F+1        0.00000   0.00000  -0.00297   0.00000
  35       13F-1        0.00000  -0.00297   0.00000   0.00000
  36       13F+2        0.00000   0.00000   0.00000   0.00000
  37       13F-2        0.00000   0.00000   0.00000   0.00000
  38       13F+3        0.00000   0.00000   0.00000   0.00000
  39       13F-3        0.00000   0.00000   0.00000   0.00000
     Beta Molecular Orbital Coefficients.
                           1         2         3         4         5
                       (A1G)--O  (T1U)--O  (T1U)--O  (T1U)--O   (EG)--O
     EIGENVALUES --    -7.74122  -5.56838  -5.56496  -5.56496  -2.30129
   1 1   I  1S          1.00020   0.00000   0.00000   0.00000   0.00053
   2        2S          0.00063   0.00000   0.00000   0.00000   0.00440
   3        3S          0.00082   0.00000   0.00000   0.00000   0.01121
   4        4S         -0.00192   0.00000   0.00000   0.00000  -0.02234
   5        5S          0.00050   0.00000   0.00000   0.00000   0.00328
   6        6PX         0.00000   0.00000   0.00000   1.00112   0.00000
   7        6PY         0.00000   0.00000   1.00112   0.00000   0.00000
   8        6PZ         0.00000   0.99514   0.00000   0.00000   0.00000
   9        7PX         0.00000   0.00000   0.00000  -0.00129   0.00000
  10        7PY         0.00000   0.00000  -0.00129   0.00000   0.00000
  11        7PZ         0.00000  -0.00537   0.00000   0.00000   0.00000
  12        8PX         0.00000   0.00000   0.00000  -0.00152   0.00000
  13        8PY         0.00000   0.00000  -0.00152   0.00000   0.00000
  14        8PZ         0.00000   0.00618   0.00000   0.00000   0.00000
  15        9PX         0.00000   0.00000   0.00000  -0.00004   0.00000
  16        9PY         0.00000   0.00000  -0.00004   0.00000   0.00000
  17        9PZ         0.00000   0.00216   0.00000   0.00000   0.00000
  18       10D 0        0.00136   0.00000   0.00000   0.00000   1.00245
  19       10D+1        0.00000   0.00000   0.00000   0.00000   0.00000
  20       10D-1        0.00000   0.00000   0.00000   0.00000   0.00000
  21       10D+2        0.00000   0.00000   0.00000   0.00000   0.00000
  22       10D-2        0.00000   0.00000   0.00000   0.00000   0.00000
  23       11D 0        0.00034   0.00000   0.00000   0.00000  -0.00316
  24       11D+1        0.00000   0.00000   0.00000   0.00000   0.00000
  25       11D-1        0.00000   0.00000   0.00000   0.00000   0.00000
  26       11D+2        0.00000   0.00000   0.00000   0.00000   0.00000
  27       11D-2        0.00000   0.00000   0.00000   0.00000   0.00000
  28       12D 0       -0.00043   0.00000   0.00000   0.00000  -0.00270
  29       12D+1        0.00000   0.00000   0.00000   0.00000   0.00000
  30       12D-1        0.00000   0.00000   0.00000   0.00000   0.00000
  31       12D+2        0.00000   0.00000   0.00000   0.00000   0.00000
  32       12D-2        0.00000   0.00000   0.00000   0.00000   0.00000
  33       13F 0        0.00000   0.00005   0.00000   0.00000   0.00000
  34       13F+1        0.00000   0.00000   0.00000   0.00005   0.00000
  35       13F-1        0.00000   0.00000   0.00005   0.00000   0.00000
  36       13F+2        0.00000   0.00000   0.00000   0.00000   0.00000
  37       13F-2        0.00000   0.00000   0.00000   0.00000   0.00000
  38       13F+3        0.00000   0.00000   0.00000   0.00000   0.00000
  39       13F-3        0.00000   0.00000   0.00000   0.00000   0.00000
                           6         7         8         9        10
                       (T2G)--O  (T2G)--O   (EG)--O  (T2G)--O      O
     EIGENVALUES --    -2.29775  -2.29775  -2.28759  -2.28759  -0.83275
   1 1   I  1S          0.00000   0.00000   0.00000   0.00000   0.00184
   2        2S          0.00000   0.00000   0.00000   0.00000   1.00620
   3        3S          0.00000   0.00000   0.00000   0.00000   0.01302
   4        4S          0.00000   0.00000   0.00000   0.00000  -0.03171
   5        5S          0.00000   0.00000   0.00000   0.00000   0.01331
   6        6PX         0.00000   0.00000   0.00000   0.00000   0.00000
   7        6PY         0.00000   0.00000   0.00000   0.00000   0.00000
   8        6PZ         0.00000   0.00000   0.00000   0.00000   0.00000
   9        7PX         0.00000   0.00000   0.00000   0.00000   0.00000
  10        7PY         0.00000   0.00000   0.00000   0.00000   0.00000
  11        7PZ         0.00000   0.00000   0.00000   0.00000   0.00000
  12        8PX         0.00000   0.00000   0.00000   0.00000   0.00000
  13        8PY         0.00000   0.00000   0.00000   0.00000   0.00000
  14        8PZ         0.00000   0.00000   0.00000   0.00000   0.00000
  15        9PX         0.00000   0.00000   0.00000   0.00000   0.00000
  16        9PY         0.00000   0.00000   0.00000   0.00000   0.00000
  17        9PZ         0.00000   0.00000   0.00000   0.00000   0.00000
  18       10D 0        0.00000   0.00000   0.00000   0.00000   0.02554
  19       10D+1        0.00000   1.00205   0.00000   0.00000   0.00000
  20       10D-1        1.00205   0.00000   0.00000   0.00000   0.00000
  21       10D+2        0.00000   0.00000   1.00033   0.00000   0.00000
  22       10D-2        0.00000   0.00000   0.00000   1.00033   0.00000
  23       11D 0        0.00000   0.00000   0.00000   0.00000  -0.02124
  24       11D+1        0.00000  -0.00279   0.00000   0.00000   0.00000
  25       11D-1       -0.00279   0.00000   0.00000   0.00000   0.00000
  26       11D+2        0.00000   0.00000  -0.00107   0.00000   0.00000
  27       11D-2        0.00000   0.00000   0.00000  -0.00107   0.00000
  28       12D 0        0.00000   0.00000   0.00000   0.00000  -0.03586
  29       12D+1        0.00000  -0.00185   0.00000   0.00000   0.00000
  30       12D-1       -0.00185   0.00000   0.00000   0.00000   0.00000
  31       12D+2        0.00000   0.00000   0.00115   0.00000   0.00000
  32       12D-2        0.00000   0.00000   0.00000   0.00115   0.00000
  33       13F 0        0.00000   0.00000   0.00000   0.00000   0.00000
  34       13F+1        0.00000   0.00000   0.00000   0.00000   0.00000
  35       13F-1        0.00000   0.00000   0.00000   0.00000   0.00000
  36       13F+2        0.00000   0.00000   0.00000   0.00000   0.00000
  37       13F-2        0.00000   0.00000   0.00000   0.00000   0.00000
  38       13F+3        0.00000   0.00000   0.00000   0.00000   0.00000
  39       13F-3        0.00000   0.00000   0.00000   0.00000   0.00000
                          11        12        13        14        15
                           O         O         V     (A1G)--V      V
     EIGENVALUES --    -0.38202  -0.38202  -0.04893   0.23555   0.39143
   1 1   I  1S          0.00000   0.00000   0.00000  -0.02678   0.00000
   2        2S          0.00000   0.00000   0.00000   0.37116   0.00000
   3        3S          0.00000   0.00000   0.00000  -0.89666   0.00000
   4        4S          0.00000   0.00000   0.00000   4.03811   0.00000
   5        5S          0.00000   0.00000   0.00000  -3.79681   0.00000
   6        6PX         0.00000  -0.00593   0.00000   0.00000   0.00000
   7        6PY        -0.00593   0.00000   0.00000   0.00000   0.00000
   8        6PZ         0.00000   0.00000  -0.07408   0.00000   0.00000
   9        7PX         0.00000   0.97620   0.00000   0.00000   0.00000
  10        7PY         0.97620   0.00000   0.00000   0.00000   0.00000
  11        7PZ         0.00000   0.00000   0.69535   0.00000   0.00000
  12        8PX         0.00000   0.00598   0.00000   0.00000   0.00000
  13        8PY         0.00598   0.00000   0.00000   0.00000   0.00000
  14        8PZ         0.00000   0.00000   0.03452   0.00000   0.00000
  15        9PX         0.00000   0.02365   0.00000   0.00000   0.00000
  16        9PY         0.02365   0.00000   0.00000   0.00000   0.00000
  17        9PZ         0.00000   0.00000   0.31810   0.00000   0.00000
  18       10D 0        0.00000   0.00000   0.00000  -0.00322   0.00000
  19       10D+1        0.00000   0.00000   0.00000   0.00000   0.00000
  20       10D-1        0.00000   0.00000   0.00000   0.00000   0.00000
  21       10D+2        0.00000   0.00000   0.00000   0.00000   0.00000
  22       10D-2        0.00000   0.00000   0.00000   0.00000  -0.23540
  23       11D 0        0.00000   0.00000   0.00000   0.00522   0.00000
  24       11D+1        0.00000   0.00000   0.00000   0.00000   0.00000
  25       11D-1        0.00000   0.00000   0.00000   0.00000   0.00000
  26       11D+2        0.00000   0.00000   0.00000   0.00000   0.00000
  27       11D-2        0.00000   0.00000   0.00000   0.00000  -0.04758
  28       12D 0        0.00000   0.00000   0.00000  -0.00588   0.00000
  29       12D+1        0.00000   0.00000   0.00000   0.00000   0.00000
  30       12D-1        0.00000   0.00000   0.00000   0.00000   0.00000
  31       12D+2        0.00000   0.00000   0.00000   0.00000   0.00000
  32       12D-2        0.00000   0.00000   0.00000   0.00000   1.06056
  33       13F 0        0.00000   0.00000  -0.00681   0.00000   0.00000
  34       13F+1        0.00000  -0.00616   0.00000   0.00000   0.00000
  35       13F-1       -0.00616   0.00000   0.00000   0.00000   0.00000
  36       13F+2        0.00000   0.00000   0.00000   0.00000   0.00000
  37       13F-2        0.00000   0.00000   0.00000   0.00000   0.00000
  38       13F+3        0.00000   0.00000   0.00000   0.00000   0.00000
  39       13F-3        0.00000   0.00000   0.00000   0.00000   0.00000
                          16        17        18        19        20
                           V         V         V         V         V
     EIGENVALUES --     0.39143   0.41248   0.41248   0.42043   0.43138
   1 1   I  1S          0.00000   0.00000   0.00000   0.00199   0.00000
   2        2S          0.00000   0.00000   0.00000   0.05583   0.00000
   3        3S          0.00000   0.00000   0.00000   0.01024   0.00000
   4        4S          0.00000   0.00000   0.00000  -0.01767   0.00000
   5        5S          0.00000   0.00000   0.00000  -0.00075   0.00000
   6        6PX         0.00000   0.00000   0.00000   0.00000  -0.71030
   7        6PY         0.00000   0.00000   0.00000   0.00000   0.00000
   8        6PZ         0.00000   0.00000   0.00000   0.00000   0.00000
   9        7PX         0.00000   0.00000   0.00000   0.00000  -2.41404
  10        7PY         0.00000   0.00000   0.00000   0.00000   0.00000
  11        7PZ         0.00000   0.00000   0.00000   0.00000   0.00000
  12        8PX         0.00000   0.00000   0.00000   0.00000   0.44236
  13        8PY         0.00000   0.00000   0.00000   0.00000   0.00000
  14        8PZ         0.00000   0.00000   0.00000   0.00000   0.00000
  15        9PX         0.00000   0.00000   0.00000   0.00000   2.49350
  16        9PY         0.00000   0.00000   0.00000   0.00000   0.00000
  17        9PZ         0.00000   0.00000   0.00000   0.00000   0.00000
  18       10D 0        0.00000   0.00000   0.00000  -0.21528   0.00000
  19       10D+1        0.00000  -0.22083   0.00000   0.00000   0.00000
  20       10D-1        0.00000   0.00000  -0.22083   0.00000   0.00000
  21       10D+2       -0.23540   0.00000   0.00000   0.00000   0.00000
  22       10D-2        0.00000   0.00000   0.00000   0.00000   0.00000
  23       11D 0        0.00000   0.00000   0.00000  -0.08198   0.00000
  24       11D+1        0.00000  -0.07256   0.00000   0.00000   0.00000
  25       11D-1        0.00000   0.00000  -0.07256   0.00000   0.00000
  26       11D+2       -0.04758   0.00000   0.00000   0.00000   0.00000
  27       11D-2        0.00000   0.00000   0.00000   0.00000   0.00000
  28       12D 0        0.00000   0.00000   0.00000   1.07957   0.00000
  29       12D+1        0.00000   1.07523   0.00000   0.00000   0.00000
  30       12D-1        0.00000   0.00000   1.07523   0.00000   0.00000
  31       12D+2        1.06056   0.00000   0.00000   0.00000   0.00000
  32       12D-2        0.00000   0.00000   0.00000   0.00000   0.00000
  33       13F 0        0.00000   0.00000   0.00000   0.00000   0.00000
  34       13F+1        0.00000   0.00000   0.00000   0.00000   0.00146
  35       13F-1        0.00000   0.00000   0.00000   0.00000   0.00000
  36       13F+2        0.00000   0.00000   0.00000   0.00000   0.00000
  37       13F-2        0.00000   0.00000   0.00000   0.00000   0.00000
  38       13F+3        0.00000   0.00000   0.00000   0.00000   0.00000
  39       13F-3        0.00000   0.00000   0.00000   0.00000   0.00000
                          21        22        23        24        25
                           V         V         V         V         V
     EIGENVALUES --     0.43138   0.45326   1.15447   1.15494   1.15494
   1 1   I  1S          0.00000   0.00000   0.00000   0.00000   0.00000
   2        2S          0.00000   0.00000   0.00000   0.00000   0.00000
   3        3S          0.00000   0.00000   0.00000   0.00000   0.00000
   4        4S          0.00000   0.00000   0.00000   0.00000   0.00000
   5        5S          0.00000   0.00000   0.00000   0.00000   0.00000
   6        6PX         0.00000   0.00000   0.00000   0.00000   0.00433
   7        6PY        -0.71030   0.00000   0.00000   0.00433   0.00000
   8        6PZ         0.00000   0.72827   0.00540   0.00000   0.00000
   9        7PX         0.00000   0.00000   0.00000   0.00000   0.01416
  10        7PY        -2.41404   0.00000   0.00000   0.01416   0.00000
  11        7PZ         0.00000   2.55365   0.01665   0.00000   0.00000
  12        8PX         0.00000   0.00000   0.00000   0.00000  -0.00460
  13        8PY         0.44236   0.00000   0.00000  -0.00460   0.00000
  14        8PZ         0.00000  -0.46906  -0.00587   0.00000   0.00000
  15        9PX         0.00000   0.00000   0.00000   0.00000  -0.00641
  16        9PY         2.49350   0.00000   0.00000  -0.00641   0.00000
  17        9PZ         0.00000  -2.49319  -0.00750   0.00000   0.00000
  18       10D 0        0.00000   0.00000   0.00000   0.00000   0.00000
  19       10D+1        0.00000   0.00000   0.00000   0.00000   0.00000
  20       10D-1        0.00000   0.00000   0.00000   0.00000   0.00000
  21       10D+2        0.00000   0.00000   0.00000   0.00000   0.00000
  22       10D-2        0.00000   0.00000   0.00000   0.00000   0.00000
  23       11D 0        0.00000   0.00000   0.00000   0.00000   0.00000
  24       11D+1        0.00000   0.00000   0.00000   0.00000   0.00000
  25       11D-1        0.00000   0.00000   0.00000   0.00000   0.00000
  26       11D+2        0.00000   0.00000   0.00000   0.00000   0.00000
  27       11D-2        0.00000   0.00000   0.00000   0.00000   0.00000
  28       12D 0        0.00000   0.00000   0.00000   0.00000   0.00000
  29       12D+1        0.00000   0.00000   0.00000   0.00000   0.00000
  30       12D-1        0.00000   0.00000   0.00000   0.00000   0.00000
  31       12D+2        0.00000   0.00000   0.00000   0.00000   0.00000
  32       12D-2        0.00000   0.00000   0.00000   0.00000   0.00000
  33       13F 0        0.00000  -0.00243   0.99997   0.00000   0.00000
  34       13F+1        0.00000   0.00000   0.00000   0.00000   0.99998
  35       13F-1        0.00146   0.00000   0.00000   0.99998   0.00000
  36       13F+2        0.00000   0.00000   0.00000   0.00000   0.00000
  37       13F-2        0.00000   0.00000   0.00000   0.00000   0.00000
  38       13F+3        0.00000   0.00000   0.00000   0.00000   0.00000
  39       13F-3        0.00000   0.00000   0.00000   0.00000   0.00000
                          26        27        28        29        30
                       (A2U)--V      V         V         V     (A1G)--V
     EIGENVALUES --     1.15612   1.15612   1.15739   1.15739   1.27349
   1 1   I  1S          0.00000   0.00000   0.00000   0.00000  -0.53698
   2        2S          0.00000   0.00000   0.00000   0.00000  -2.59209
   3        3S          0.00000   0.00000   0.00000   0.00000  -4.16698
   4        4S          0.00000   0.00000   0.00000   0.00000   9.27359
   5        5S          0.00000   0.00000   0.00000   0.00000  -3.12421
   6        6PX         0.00000   0.00000   0.00000   0.00000   0.00000
   7        6PY         0.00000   0.00000   0.00000   0.00000   0.00000
   8        6PZ         0.00000   0.00000   0.00000   0.00000   0.00000
   9        7PX         0.00000   0.00000   0.00000   0.00000   0.00000
  10        7PY         0.00000   0.00000   0.00000   0.00000   0.00000
  11        7PZ         0.00000   0.00000   0.00000   0.00000   0.00000
  12        8PX         0.00000   0.00000   0.00000   0.00000   0.00000
  13        8PY         0.00000   0.00000   0.00000   0.00000   0.00000
  14        8PZ         0.00000   0.00000   0.00000   0.00000   0.00000
  15        9PX         0.00000   0.00000   0.00000   0.00000   0.00000
  16        9PY         0.00000   0.00000   0.00000   0.00000   0.00000
  17        9PZ         0.00000   0.00000   0.00000   0.00000   0.00000
  18       10D 0        0.00000   0.00000   0.00000   0.00000   0.00706
  19       10D+1        0.00000   0.00000   0.00000   0.00000   0.00000
  20       10D-1        0.00000   0.00000   0.00000   0.00000   0.00000
  21       10D+2        0.00000   0.00000   0.00000   0.00000   0.00000
  22       10D-2        0.00000   0.00000   0.00000   0.00000   0.00000
  23       11D 0        0.00000   0.00000   0.00000   0.00000  -0.01087
  24       11D+1        0.00000   0.00000   0.00000   0.00000   0.00000
  25       11D-1        0.00000   0.00000   0.00000   0.00000   0.00000
  26       11D+2        0.00000   0.00000   0.00000   0.00000   0.00000
  27       11D-2        0.00000   0.00000   0.00000   0.00000   0.00000
  28       12D 0        0.00000   0.00000   0.00000   0.00000   0.00933
  29       12D+1        0.00000   0.00000   0.00000   0.00000   0.00000
  30       12D-1        0.00000   0.00000   0.00000   0.00000   0.00000
  31       12D+2        0.00000   0.00000   0.00000   0.00000   0.00000
  32       12D-2        0.00000   0.00000   0.00000   0.00000   0.00000
  33       13F 0        0.00000   0.00000   0.00000   0.00000   0.00000
  34       13F+1        0.00000   0.00000   0.00000   0.00000   0.00000
  35       13F-1        0.00000   0.00000   0.00000   0.00000   0.00000
  36       13F+2        0.00000   1.00000   0.00000   0.00000   0.00000
  37       13F-2        1.00000   0.00000   0.00000   0.00000   0.00000
  38       13F+3        0.00000   0.00000   0.00000   1.00000   0.00000
  39       13F-3        0.00000   0.00000   1.00000   0.00000   0.00000
                          31        32        33        34        35
                           V         V         V         V         V
     EIGENVALUES --     1.60406   1.60406   1.60594   1.60594   1.60650
   1 1   I  1S          0.00000   0.00000   0.00000   0.00000  -0.00336
   2        2S          0.00000   0.00000   0.00000   0.00000  -0.00240
   3        3S          0.00000   0.00000   0.00000   0.00000  -0.02247
   4        4S          0.00000   0.00000   0.00000   0.00000   0.04421
   5        5S          0.00000   0.00000   0.00000   0.00000  -0.00792
   6        6PX         0.00000   0.00000   0.00000   0.00000   0.00000
   7        6PY         0.00000   0.00000   0.00000   0.00000   0.00000
   8        6PZ         0.00000   0.00000   0.00000   0.00000   0.00000
   9        7PX         0.00000   0.00000   0.00000   0.00000   0.00000
  10        7PY         0.00000   0.00000   0.00000   0.00000   0.00000
  11        7PZ         0.00000   0.00000   0.00000   0.00000   0.00000
  12        8PX         0.00000   0.00000   0.00000   0.00000   0.00000
  13        8PY         0.00000   0.00000   0.00000   0.00000   0.00000
  14        8PZ         0.00000   0.00000   0.00000   0.00000   0.00000
  15        9PX         0.00000   0.00000   0.00000   0.00000   0.00000
  16        9PY         0.00000   0.00000   0.00000   0.00000   0.00000
  17        9PZ         0.00000   0.00000   0.00000   0.00000   0.00000
  18       10D 0        0.00000   0.00000   0.00000   0.00000  -0.75219
  19       10D+1        0.00000   0.00000  -0.75158   0.00000   0.00000
  20       10D-1        0.00000   0.00000   0.00000  -0.75158   0.00000
  21       10D+2        0.00000  -0.74945   0.00000   0.00000   0.00000
  22       10D-2       -0.74945   0.00000   0.00000   0.00000   0.00000
  23       11D 0        0.00000   0.00000   0.00000   0.00000   1.75358
  24       11D+1        0.00000   0.00000   1.75417   0.00000   0.00000
  25       11D-1        0.00000   0.00000   0.00000   1.75417   0.00000
  26       11D+2        0.00000   1.75503   0.00000   0.00000   0.00000
  27       11D-2        1.75503   0.00000   0.00000   0.00000   0.00000
  28       12D 0        0.00000   0.00000   0.00000   0.00000  -1.01778
  29       12D+1        0.00000   0.00000  -1.02306   0.00000   0.00000
  30       12D-1        0.00000   0.00000   0.00000  -1.02306   0.00000
  31       12D+2        0.00000  -1.03826   0.00000   0.00000   0.00000
  32       12D-2       -1.03826   0.00000   0.00000   0.00000   0.00000
  33       13F 0        0.00000   0.00000   0.00000   0.00000   0.00000
  34       13F+1        0.00000   0.00000   0.00000   0.00000   0.00000
  35       13F-1        0.00000   0.00000   0.00000   0.00000   0.00000
  36       13F+2        0.00000   0.00000   0.00000   0.00000   0.00000
  37       13F-2        0.00000   0.00000   0.00000   0.00000   0.00000
  38       13F+3        0.00000   0.00000   0.00000   0.00000   0.00000
  39       13F-3        0.00000   0.00000   0.00000   0.00000   0.00000
                          36        37        38        39
                       (T1U)--V  (T1U)--V  (T1U)--V  (A1G)--V
     EIGENVALUES --     2.75775   2.76133   2.76133  58.89726
   1 1   I  1S          0.00000   0.00000   0.00000   6.37178
   2        2S          0.00000   0.00000   0.00000   7.66319
   3        3S          0.00000   0.00000   0.00000  -5.31185
   4        4S          0.00000   0.00000   0.00000  -3.21288
[...]
  25       11D-1        0.00000   0.00000   0.00000   0.00000   0.00996
  26       11D+2        0.00157   0.00000   0.00000   0.00000   0.00000
  27       11D-2        0.00000   0.00157   0.00000   0.00000   0.00000
  28       12D 0        0.00000   0.00000   0.00169   0.00000   0.00000
  29       12D+1        0.00000   0.00000   0.00000   0.00188   0.00000
  30       12D-1        0.00000   0.00000   0.00000   0.00000   0.00188
  31       12D+2       -0.00052   0.00000   0.00000   0.00000   0.00000
  32       12D-2        0.00000  -0.00052   0.00000   0.00000   0.00000
  33       13F 0        0.00000   0.00000   0.00000   0.00000   0.00000
  34       13F+1        0.00000   0.00000   0.00000   0.00000   0.00000
  35       13F-1        0.00000   0.00000   0.00000   0.00000   0.00000
  36       13F+2        0.00000   0.00000   0.00000   0.00000   0.00000
  37       13F-2        0.00000   0.00000   0.00000   0.00000   0.00000
  38       13F+3        0.00000   0.00000   0.00000   0.00000   0.00000
  39       13F-3        0.00000   0.00000   0.00000   0.00000   0.00000
                          26        27        28        29        30
  26       11D+2        0.01085
  27       11D-2        0.00000   0.01085
  28       12D 0        0.00000   0.00000   0.00517
  29       12D+1        0.00000   0.00000   0.00000   0.00614
  30       12D-1        0.00000   0.00000   0.00000   0.00000   0.00614
  31       12D+2        0.00222   0.00000   0.00000   0.00000   0.00000
  32       12D-2        0.00000   0.00222   0.00000   0.00000   0.00000
  33       13F 0        0.00000   0.00000   0.00000   0.00000   0.00000
  34       13F+1        0.00000   0.00000   0.00000   0.00000   0.00000
  35       13F-1        0.00000   0.00000   0.00000   0.00000   0.00000
  36       13F+2        0.00000   0.00000   0.00000   0.00000   0.00000
  37       13F-2        0.00000   0.00000   0.00000   0.00000   0.00000
  38       13F+3        0.00000   0.00000   0.00000   0.00000   0.00000
  39       13F-3        0.00000   0.00000   0.00000   0.00000   0.00000
                          31        32        33        34        35
  31       12D+2        0.00798
  32       12D-2        0.00000   0.00798
  33       13F 0        0.00000   0.00000   0.00278
  34       13F+1        0.00000   0.00000   0.00000   0.00261
  35       13F-1        0.00000   0.00000   0.00000   0.00000   0.00261
  36       13F+2        0.00000   0.00000   0.00000   0.00000   0.00000
  37       13F-2        0.00000   0.00000   0.00000   0.00000   0.00000
  38       13F+3        0.00000   0.00000   0.00000   0.00000   0.00000
  39       13F-3        0.00000   0.00000   0.00000   0.00000   0.00000
                          36        37        38        39
  36       13F+2        0.00244
  37       13F-2        0.00000   0.00244
  38       13F+3        0.00000   0.00000   0.00255
  39       13F-3        0.00000   0.00000   0.00000   0.00255
     Gross orbital populations:
                         TOTAL     ALPHA     BETA      SPIN
   1 1   I  1S          1.99922   0.99942   0.99980  -0.00038
   2        2S          2.00630   1.00010   1.00620  -0.00610
   3        3S          0.01548   0.00061   0.01487  -0.01426
   4        4S         -0.00469   0.02054  -0.02524   0.04578
   5        5S         -0.03276  -0.02614  -0.00662  -0.01952
   6        6PX         2.00017   1.00016   1.00002   0.00014
   7        6PY         2.00017   1.00016   1.00002   0.00014
   8        6PZ         1.99372   0.99874   0.99498   0.00376
   9        7PX         1.94281   0.98573   0.95708   0.02865
  10        7PY         1.94281   0.98573   0.95708   0.02865
  11        7PZ         1.04817   1.03765   0.01052   1.02713
  12        8PX         0.00597   0.00129   0.00468  -0.00340
  13        8PY         0.00597   0.00129   0.00468  -0.00340
  14        8PZ         0.00167  -0.00406   0.00573  -0.00979
  15        9PX         0.01956  -0.00353   0.02308  -0.02661
  16        9PY         0.01956  -0.00353   0.02308  -0.02661
  17        9PZ        -0.04766  -0.04495  -0.00271  -0.04224
  18       10D 0        1.98971   0.99254   0.99717  -0.00462
  19       10D+1        1.98999   0.99318   0.99681  -0.00364
  20       10D-1        1.98999   0.99318   0.99681  -0.00364
  21       10D+2        1.99082   0.99509   0.99573  -0.00064
  22       10D-2        1.99082   0.99509   0.99573  -0.00064
  23       11D 0        0.01542   0.01129   0.00413   0.00716
  24       11D+1        0.01524   0.01024   0.00501   0.00523
  25       11D-1        0.01524   0.01024   0.00501   0.00523
  26       11D+2        0.01463   0.00748   0.00715   0.00034
  27       11D-2        0.01463   0.00748   0.00715   0.00034
  28       12D 0        0.00569   0.00505   0.00065   0.00440
  29       12D+1        0.00699   0.00489   0.00210   0.00279
  30       12D-1        0.00699   0.00489   0.00210   0.00279
  31       12D+2        0.00969   0.00459   0.00510  -0.00052
  32       12D-2        0.00969   0.00459   0.00510  -0.00052
  33       13F 0        0.00278   0.00201   0.00077   0.00124
  34       13F+1        0.00261   0.00181   0.00081   0.00100
  35       13F-1        0.00261   0.00181   0.00081   0.00100
  36       13F+2        0.00244   0.00142   0.00101   0.00041
  37       13F-2        0.00244   0.00142   0.00101   0.00041
  38       13F+3        0.00255   0.00125   0.00130  -0.00004
  39       13F-3        0.00255   0.00125   0.00130  -0.00004
          Condensed to atoms (all electrons):
              1
     1  I   25.000000
 Mulliken atomic charges:
              1
     1  I    0.000000
 Sum of Mulliken charges=   0.00000
 Atomic charges with hydrogens summed into heavy atoms:
              1
     1  I    0.000000
 Sum of Mulliken charges=   0.00000
          Atomic-Atomic Spin Densities.
              1
     1  I    1.000000
 Mulliken atomic spin densities:
              1
     1  I    1.000000
 Sum of Mulliken spin densities=   1.00000
 Electronic spatial extent (au):  <R**2>=    60.2242
 Charge=     0.0000 electrons
 Dipole moment (field-independent basis, Debye):
    X=     0.0000    Y=     0.0000    Z=     0.0000  Tot=     0.0000
 Quadrupole moment (field-independent basis, Debye-Ang):
   XX=   -28.1833   YY=   -28.1833   ZZ=   -24.6368
   XY=     0.0000   XZ=     0.0000   YZ=     0.0000
 Traceless Quadrupole moment (field-independent basis, Debye-Ang):
   XX=    -1.1822   YY=    -1.1822   ZZ=     2.3644
   XY=     0.0000   XZ=     0.0000   YZ=     0.0000
 Octapole moment (field-independent basis, Debye-Ang**2):
  XXX=     0.0000  YYY=     0.0000  ZZZ=    -0.0739  XYY=     0.0000
  XXY=     0.0000  XXZ=    -0.0282  XZZ=     0.0000  YZZ=     0.0000
  YYZ=    -0.0282  XYZ=     0.0000
 Hexadecapole moment (field-independent basis, Debye-Ang**3):
 XXXX=   -41.8376 YYYY=   -41.8376 ZZZZ=   -30.7905 XXXY=     0.0000
 XXXZ=     0.0000 YYYX=     0.0000 YYYZ=     0.0000 ZZZX=     0.0000
 ZZZY=     0.0000 XXYY=   -13.9459 XXZZ=   -12.1042 YYZZ=   -12.1042
 XXYZ=     0.0000 YYXZ=     0.0000 ZZXY=     0.0000
 N-N= 0.000000000000D+00 E-N=-6.238120257803D+02  KE= 1.105799347698D+02
 Orbital energies and kinetic energies (alpha):
                           1         2
       1  O            -7.74895   3.19122
       2  O            -5.58940   4.64443
       3  O            -5.56608   4.65133
       4  O            -5.56608   4.65133
       5  O            -2.31315   6.84871
       6  O            -2.30679   6.85628
       7  O            -2.30679   6.85628
       8  O            -2.28801   6.87614
       9  O            -2.28801   6.87614
      10  O            -0.92227   1.22559
      11  O            -0.45918   1.09920
      12  O            -0.39919   1.05750
      13  O            -0.39919   1.05750
      14  V             0.22368   0.55679
      15  V             0.34920   0.99534
      16  V             0.35800   0.99197
      17  V             0.35800   0.99197
      18  V             0.38935   0.97238
      19  V             0.38935   0.97238
      20  V             0.39634   1.03327
      21  V             0.42624   1.06623
      22  V             0.42624   1.06623
      23  V             1.10480   1.82910
      24  V             1.11029   1.82901
      25  V             1.11029   1.82901
      26  V             1.12709   1.82880
      27  V             1.12709   1.82880
      28  V             1.15709   1.82880
      29  V             1.15709   1.82880
      30  V             1.25787   2.89362
      31  V             1.56020   4.06630
      32  V             1.56963   4.06768
      33  V             1.56963   4.06768
      34  V             1.60146   4.06741
      35  V             1.60146   4.06741
      36  V             2.71726   5.03065
      37  V             2.75621   5.03258
      38  V             2.75621   5.03258
      39  V            58.89520  16.55116
 Orbital energies and kinetic energies (beta):
                           1         2
       1  O            -7.74122   3.19046
       2  O            -5.56838   4.63458
       3  O            -5.56496   4.65344
       4  O            -5.56496   4.65344
       5  O            -2.30129   6.90095
       6  O            -2.29775   6.89693
       7  O            -2.29775   6.89693
       8  O            -2.28759   6.87949
       9  O            -2.28759   6.87949
      10  O            -0.83275   1.23666
      11  O            -0.38202   1.04329
      12  O            -0.38202   1.04329
      13  V            -0.04893   0.82872
      14  V             0.23555   0.54665
      15  V             0.39143   0.96973
      16  V             0.39143   0.96973
      17  V             0.41248   0.93222
      18  V             0.41248   0.93222
      19  V             0.42043   0.92032
      20  V             0.43138   1.07793
      21  V             0.43138   1.07793
      22  V             0.45326   1.26793
      23  V             1.15447   1.82876
      24  V             1.15494   1.82877
      25  V             1.15494   1.82877
      26  V             1.15612   1.82880
      27  V             1.15612   1.82880
      28  V             1.15739   1.82880
      29  V             1.15739   1.82880
      30  V             1.27349   2.89008
      31  V             1.60406   4.06670
      32  V             1.60406   4.06670
      33  V             1.60594   4.08678
      34  V             1.60594   4.08678
      35  V             1.60650   4.09245
      36  V             2.75775   5.07666
      37  V             2.76133   5.03322
      38  V             2.76133   5.03322
      39  V            58.89726  16.55116
 Total kinetic energy from orbitals= 1.108005977709D+02
                          Isotropic Fermi Contact Couplings
        Atom                 a.u.       MegaHertz       Gauss      10(-4) cm-1
     1  I(127)            -0.00008      -0.07224      -0.02578      -0.02410
 --------------------------------------------------------
       Center         ----  Spin Dipole Couplings  ----
                      3XX-RR        3YY-RR        3ZZ-RR
 --------------------------------------------------------
     1   Atom       -0.174752     -0.174752      0.349505
 --------------------------------------------------------
                        XY            XZ            YZ
 --------------------------------------------------------
     1   Atom        0.000000      0.000000      0.000000
 --------------------------------------------------------


 ---------------------------------------------------------------------------------
              Anisotropic Spin Dipole Couplings in Principal Axis System
 ---------------------------------------------------------------------------------

       Atom             a.u.   MegaHertz   Gauss  10(-4) cm-1        Axes

              Baa    -0.1748   -18.784    -6.703    -6.266  0.3360  0.9418  0.0000
     1 I(127) Bbb    -0.1748   -18.784    -6.703    -6.266  0.9418 -0.3360  0.0000
              Bcc     0.3495    37.569    13.405    12.532  0.0000  0.0000  1.0000
 

 ---------------------------------------------------------------------------------

 No NMR shielding tensors so no spin-rotation constants.
 Leave Link  601 at Mon Aug 12 23:28:30 2013, MaxMem=  134217728 cpu:       1.0
 (Enter /usr/local/lib/g03/l701.exe)
 Compute integral first derivatives.
 ... and contract with generalized density number  2.
   1 Symmetry operations used in ECPInt.
 ECPInt:  NShTT=      91 NPrTT=    1871 LenC2=      92 LenP2D=    1871.
 LDataN:  DoStor=F MaxTD1= 8 Len=  415
 LDataN:  DoStor=T MaxTD1= 8 Len=  415
 Leave Link  701 at Mon Aug 12 23:28:46 2013, MaxMem=  134217728 cpu:       4.1
 (Enter /usr/local/lib/g03/l702.exe)
 L702 exits ... SP integral derivatives will be done elsewhere.
 Leave Link  702 at Mon Aug 12 23:28:57 2013, MaxMem=  134217728 cpu:       0.0
 (Enter /usr/local/lib/g03/l703.exe)
 Compute integral first derivatives, UseDBF=F.
 Integral derivatives from FoFDir, PRISM(SPDF).
 Use density number 2.
 Symmetry not used in FoFDir.
 MinBra= 0 MaxBra= 3 Meth= 1.
 IRaf=       0 NMat=   1 IRICut=       1 DoRegI=T DoRafI=F ISym2E= 0 JSym2E=0.
 Leave Link  703 at Mon Aug 12 23:29:19 2013, MaxMem=  134217728 cpu:       7.1
 (Enter /usr/local/lib/g03/l716.exe)
 Use density number 2.
 Dipole        =-6.65499124D-16-5.63118878D-16 2.12937307D-16
 -------------------------------------------------------------------
 Center     Atomic                   Forces (Hartrees/Bohr)
 Number     Number              X              Y              Z
 -------------------------------------------------------------------
    1         53           0.000000000    0.000000000    0.000000000
 -------------------------------------------------------------------
 Cartesian Forces:  Max     0.000000000 RMS     0.000000000
 Leave Link  716 at Mon Aug 12 23:29:31 2013, MaxMem=  134217728 cpu:       0.0
 (Enter /usr/local/lib/g03/l106.exe)
 NDeriv=   3 NFrqRd=  0 LFDDif=       0
 NDeriv=   3 NFrqRd=  0 LFDDif=       0
 Re-enter D2Numr: IAtom=  1 IXYZ=3 IStep= 1.
 Skip step-back as it is equivalent to step-up.
 Maximum difference in off-diagonal FC elements:
 I=  3 J=  1 Difference=    9.9315217967D-28
 Max difference between analytic and numerical forces:
 I=  0 Difference=    0.0000000000D+00
 Leave Link  106 at Mon Aug 12 23:29:42 2013, MaxMem=  134217728 cpu:       0.1
 (Enter /usr/local/lib/g03/l716.exe)
 Dipole        = 0.00000000D+00 0.00000000D+00 0.00000000D+00
 Full mass-weighted force constant matrix:
 Low frequencies ---    0.0000    0.0001    0.0002
 Diagonal vibrational polarizability:
        0.0000000       0.0000000       0.0000000
 Harmonic frequencies (cm**-1), IR intensities (KM/Mole), Raman scattering
 activities (A**4/AMU), depolarization ratios for plane and unpolarized
 incident light, reduced masses (AMU), force constants (mDyne/A),
 and normal coordinates:

 -------------------
 - Thermochemistry -
 -------------------
 Temperature   298.150 Kelvin.  Pressure   1.00000 Atm.
 Atom  1 has atomic number 53 and mass 126.90040
 Molecular mass:   126.90040 amu.
 Zero-point vibrational energy          0.0 (Joules/Mol)
                                    0.00000 (Kcal/Mol)
 Vibrational temperatures: 
          (Kelvin)
 
 Zero-point correction=                           0.000000 (Hartree/Particle)
 Thermal correction to Energy=                    0.001416
 Thermal correction to Enthalpy=                  0.002360
 Thermal correction to Gibbs Free Energy=        -0.017503
 Sum of electronic and zero-point Energies=           -294.863936
 Sum of electronic and thermal Energies=              -294.862519
 Sum of electronic and thermal Enthalpies=            -294.861575
 Sum of electronic and thermal Free Energies=         -294.881438
 
                     E (Thermal)             CV                S
                      KCal/Mol        Cal/Mol-Kelvin    Cal/Mol-Kelvin
 Total                    0.889              2.981             41.806
 Electronic               0.000              0.000              1.377
 Translational            0.889              2.981             40.428
 Rotational               0.000              0.000              0.000
 Vibrational              0.000              0.000              0.000
                       Q            Log10(Q)             Ln(Q)
 Total Bot       0.112378D+09          8.050680         18.537375
 Total V=0       0.112378D+09          8.050680         18.537375
 Vib (Bot)       0.100000D+01          0.000000          0.000000
 Vib (V=0)       0.100000D+01          0.000000          0.000000
 Electronic      0.200000D+01          0.301030          0.693147
 Translational   0.561888D+08          7.749650         17.844228
 Rotational      0.100000D+01          0.000000          0.000000
 ***** Axes restored to original set *****
 -------------------------------------------------------------------
 Center     Atomic                   Forces (Hartrees/Bohr)
 Number     Number              X              Y              Z
 -------------------------------------------------------------------
    1         53           0.000000000    0.000000000    0.000000000
 -------------------------------------------------------------------
 Cartesian Forces:  Max     0.000000000 RMS     0.000000000
 Force constants in Cartesian coordinates: 
                1             2             3
      1  0.000000D+00
      2  0.000000D+00  0.000000D+00
      3  0.000000D+00  0.000000D+00  0.000000D+00
 Leave Link  716 at Mon Aug 12 23:29:54 2013, MaxMem=  134217728 cpu:       0.0
 (Enter /usr/local/lib/g03/l103.exe)

 GradGradGradGradGradGradGradGradGradGradGradGradGradGradGradGradGradGrad
 Berny optimization.
 Search for a local minimum.
 Step number   1 out of a maximum of   2
 All quantities printed in internal units (Hartrees-Bohrs-Radians)
 Second derivative matrix not updated -- analytic derivatives used.
 The second derivative matrix:
                          X1        Y1        Z1
           X1           0.00000
           Y1           0.00000   0.00000
           Z1           0.00000   0.00000   0.00000
     Eigenvalues --- 
 Angle between quadratic step and forces=  90.00 degrees.
 Linear search not attempted -- first point.
 TrRot=  0.000000  0.000000  0.000000  0.000000  0.000000  0.000000
 Variable       Old X    -DE/DX   Delta X   Delta X   Delta X     New X
                                 (Linear)    (Quad)   (Total)
    X1        0.00000   0.00000   0.00000   0.00000   0.00000   0.00000
    Y1        0.00000   0.00000   0.00000   0.00000   0.00000   0.00000
    Z1        0.00000   0.00000   0.00000   0.00000   0.00000   0.00000
         Item               Value     Threshold  Converged?
 Maximum Force            0.000000     0.000450     YES
 RMS     Force            0.000000     0.000300     YES
 Maximum Displacement     0.000000     0.001800     YES
 RMS     Displacement     0.000000     0.001200     YES
 Predicted change in Energy= 0.000000D+00
 Optimization completed.
    -- Stationary point found.
 GradGradGradGradGradGradGradGradGradGradGradGradGradGradGradGradGradGrad

 Leave Link  103 at Mon Aug 12 23:30:08 2013, MaxMem=  134217728 cpu:       0.0
 (Enter /usr/local/lib/g03/l9999.exe)

 Test job not archived.
 1\1\GINC-MARCUS\Freq\UMP2-FC\Gen\I1(2)\BOHR\12-Aug-2013\0\\#P MP2/GEN 
 freq=Numer pseudo=read # pop=full gfinput iop(6/7=3)\\job\\0,2\I,0.,0.
 ,0.\\Version=IA32L-G03RevD.01\HF=-294.661503\MP2=-294.8639356\PUHF=-29
 4.6644112\PMP2-0=-294.865456\S2=0.759604\S2-1=0.750416\S2A=0.750038\RM
 SD=9.653e-10\RMSF=0.000e+00\Thermal=0.0014163\Dipole=0.,0.,0.\DipoleDe
 riv=0.,0.,0.,0.,0.,0.,0.,0.,0.\PG=OH [O(I1)]\NImag=0\\0.,0.,0.,0.,0.,0
 .\\0.,0.,0.\\\@


 THERE ONCE WAS A GIRL NAMED IRENE,
 WHO LIVED ON DISTILLED KEROSENE,
      BUT SHE STARTED ABSORBIN'
      A NEW HYDROCARBON,
 AND SINCE THEN HAS NEVER BENZENE.
 Job cpu time:  0 days  0 hours  6 minutes 38.9 seconds.
 File lengths (MBytes):  RWF=     11 Int=      0 D2E=      0 Chk=      9 Scr=      1
 Normal termination of Gaussian 03 at Mon Aug 12 23:30:18 2013.
