 Entering Gaussian System, Link 0=g09
 Initial command:
 /apps/gaussian/g09/l1.exe /scratch_l/henon/5Rfreq_28246/Gau-28262.inp -scrdir=/scratch_l/henon/5Rfreq_28246/
 Entering Link 1 = /apps/gaussian/g09/l1.exe PID=     28263.
  
 Copyright (c) 1988,1990,1992,1993,1995,1998,2003,2009, Gaussian, Inc.
                  All Rights Reserved.
  
 This is part of the Gaussian(R) 09 program.  It is based on
 the Gaussian(R) 03 system (copyright 2003, Gaussian, Inc.),
 the Gaussian(R) 98 system (copyright 1998, Gaussian, Inc.),
 the Gaussian(R) 94 system (copyright 1995, Gaussian, Inc.),
 the Gaussian 92(TM) system (copyright 1992, Gaussian, Inc.),
 the Gaussian 90(TM) system (copyright 1990, Gaussian, Inc.),
 the Gaussian 88(TM) system (copyright 1988, Gaussian, Inc.),
 the Gaussian 86(TM) system (copyright 1986, Carnegie Mellon
 University), and the Gaussian 82(TM) system (copyright 1983,
 Carnegie Mellon University). Gaussian is a federally registered
 trademark of Gaussian, Inc.
  
 This software contains proprietary and confidential information,
 including trade secrets, belonging to Gaussian, Inc.
  
 This software is provided under written license and may be
 used, copied, transmitted, or stored only in accord with that
 written license.
  
 The following legend is applicable only to US Government
 contracts under FAR:
  
                    RESTRICTED RIGHTS LEGEND
  
 Use, reproduction and disclosure by the US Government is
 subject to restrictions as set forth in subparagraphs (a)
 and (c) of the Commercial Computer Software - Restricted
 Rights clause in FAR 52.227-19.
  
 Gaussian, Inc.
 340 Quinnipiac St., Bldg. 40, Wallingford CT 06492
  
  
 ---------------------------------------------------------------
 Warning -- This program may not be used in any manner that
 competes with the business of Gaussian, Inc. or will provide
 assistance to any competitor of Gaussian, Inc.  The licensee
 of this program is prohibited from giving any competitor of
 Gaussian, Inc. access to this program.  By using this program,
 the user acknowledges that Gaussian, Inc. is engaged in the
 business of creating and licensing software in the field of
 computational chemistry and represents and warrants to the
 licensee that it is not a competitor of Gaussian, Inc. and that
 it will not use this program in any manner prohibited above.
 ---------------------------------------------------------------
  

 Cite this work as:
 Gaussian 09, Revision A.02,
 M. J. Frisch, G. W. Trucks, H. B. Schlegel, G. E. Scuseria, 
 M. A. Robb, J. R. Cheeseman, G. Scalmani, V. Barone, B. Mennucci, 
 G. A. Petersson, H. Nakatsuji, M. Caricato, X. Li, H. P. Hratchian, 
 A. F. Izmaylov, J. Bloino, G. Zheng, J. L. Sonnenberg, M. Hada, 
 M. Ehara, K. Toyota, R. Fukuda, J. Hasegawa, M. Ishida, T. Nakajima, 
 Y. Honda, O. Kitao, H. Nakai, T. Vreven, J. A. Montgomery, Jr., 
 J. E. Peralta, F. Ogliaro, M. Bearpark, J. J. Heyd, E. Brothers, 
 K. N. Kudin, V. N. Staroverov, R. Kobayashi, J. Normand, 
 K. Raghavachari, A. Rendell, J. C. Burant, S. S. Iyengar, J. Tomasi, 
 M. Cossi, N. Rega, J. M. Millam, M. Klene, J. E. Knox, J. B. Cross, 
 V. Bakken, C. Adamo, J. Jaramillo, R. Gomperts, R. E. Stratmann, 
 O. Yazyev, A. J. Austin, R. Cammi, C. Pomelli, J. W. Ochterski, 
 R. L. Martin, K. Morokuma, V. G. Zakrzewski, G. A. Voth, 
 P. Salvador, J. J. Dannenberg, S. Dapprich, A. D. Daniels, 
 O. Farkas, J. B. Foresman, J. V. Ortiz, J. Cioslowski, 
 and D. J. Fox, Gaussian, Inc., Wallingford CT, 2009.
 
 ******************************************
 Gaussian 09:  AM64L-G09RevA.02 11-Jun-2009
                25-Apr-2014 
 ******************************************
 %NPROC=12
 Will use up to   12 processors via shared memory.
 %MEM=500MB
 --------------------------------------------------
 #P M06 6-311G** FREQ # GFINPUT IOP(6/7=3) POP=FULL
 --------------------------------------------------
 1/10=4,30=1,38=1/1,3;
 2/12=2,17=6,18=5,40=1/2;
 3/5=4,6=6,7=101,11=2,16=1,24=10,25=1,30=1,71=2,74=-54/1,2,3;
 4//1;
 5/5=2,38=5,98=1/2;
 8/6=4,10=90,11=11/1;
 11/6=1,8=1,9=11,15=111,16=1/1,2,10;
 10/6=1/2;
 6/7=3,18=1,28=1/1;
 7/8=1,10=1,25=1/1,2,3,16;
 1/10=4,30=1/3;
 99//99;
 Leave Link    1 at Fri Apr 25 17:09:51 2014, MaxMem=   65536000 cpu:       0.4
 (Enter /apps/gaussian/g09/l101.exe)
 ----------------------------------
 reverse IRC, from TS reverse1 freq
 ----------------------------------
 Symbolic Z-matrix:
 Charge =  0 Multiplicity = 2
 7                    -0.1337   -0.08778   0.0881 
 7                    -0.22281  -0.00991   1.23714 
 7                     0.31891   0.03208  -1.09885 
 1                    -0.45114  -0.02368  -1.75785 
 1                     0.97318   0.93456  -1.3875 
 
 NAtoms=      5 NQM=      5 NQMF=      0 NMic=      0 NMicF=      0 NTot=      5.
                    Isotopes and Nuclear Properties:
 (Nuclear quadrupole moments (NQMom) in fm**2, nuclear magnetic moments (NMagM)
  in nuclear magnetons)

  Atom         1           2           3           4           5
 IAtWgt=          14          14          14           1           1
 AtmWgt=  14.0030740  14.0030740  14.0030740   1.0078250   1.0078250
 NucSpn=           2           2           2           1           1
 AtZEff=   0.0000000   0.0000000   0.0000000   0.0000000   0.0000000
 NQMom=    2.0440000   2.0440000   2.0440000   0.0000000   0.0000000
 NMagM=    0.4037610   0.4037610   0.4037610   2.7928460   2.7928460
 Leave Link  101 at Fri Apr 25 17:09:51 2014, MaxMem=   65536000 cpu:       0.5
 (Enter /apps/gaussian/g09/l103.exe)

 GradGradGradGradGradGradGradGradGradGradGradGradGradGradGradGradGradGrad
 Berny optimization.
 Initialization pass.
 Trust Radius=3.00D-01 FncErr=1.00D-07 GrdErr=1.00D-07
 Number of steps in this run=   2 maximum allowed number of steps=   2.
 GradGradGradGradGradGradGradGradGradGradGradGradGradGradGradGradGradGrad

 Leave Link  103 at Fri Apr 25 17:09:51 2014, MaxMem=   65536000 cpu:       0.1
 (Enter /apps/gaussian/g09/l202.exe)
                          Input orientation:                          
 ---------------------------------------------------------------------
 Center     Atomic      Atomic             Coordinates (Angstroms)
 Number     Number       Type             X           Y           Z
 ---------------------------------------------------------------------
      1          7           0       -0.133698   -0.087776    0.088096
      2          7           0       -0.222808   -0.009905    1.237144
      3          7           0        0.318911    0.032084   -1.098852
      4          1           0       -0.451139   -0.023684   -1.757853
      5          1           0        0.973183    0.934558   -1.387500
 ---------------------------------------------------------------------
                    Distance matrix (angstroms):
                    1          2          3          4          5
     1  N    0.000000
     2  N    1.155126   0.000000
     3  N    1.275957   2.398354   0.000000
     4  H    1.874141   3.003720   1.015071   0.000000
     5  H    2.108966   3.034989   1.151455   1.756156   0.000000
 Stoichiometry    H2N3(2)
 Framework group  C1[X(H2N3)]
 Deg. of freedom     9
 Full point group                 C1      NOp   1
 Largest Abelian subgroup         C1      NOp   1
 Largest concise Abelian subgroup C1      NOp   1
                         Standard orientation:                         
 ---------------------------------------------------------------------
 Center     Atomic      Atomic             Coordinates (Angstroms)
 Number     Number       Type             X           Y           Z
 ---------------------------------------------------------------------
      1          7           0        0.190971   -0.142368   -0.011451
      2          7           0        1.323334    0.083114    0.023602
      3          7           0       -1.071086    0.023282   -0.099986
      4          1           0       -1.543037   -0.750761    0.356620
      5          1           0       -1.559500    1.002559    0.258227
 ---------------------------------------------------------------------
 Rotational constants (GHZ):    221.7767018     10.9689676     10.5900037
 Leave Link  202 at Fri Apr 25 17:09:51 2014, MaxMem=   65536000 cpu:       0.0
 (Enter /apps/gaussian/g09/l301.exe)
 Standard basis: 6-311G(d,p) (5D, 7F)
 Ernie: Thresh=  0.10000D-02 Tol=  0.10000D-05 Strict=F.
 AO basis set in the form of general basis input (Overlap normalization):
      1 0
 S   6 1.00       0.000000000000
      0.6293480000D+04  0.1969788147D-02
      0.9490440000D+03  0.1496128592D-01
      0.2187760000D+03  0.7350053084D-01
      0.6369160000D+02  0.2489367658D+00
      0.1882820000D+02  0.6024594331D+00
      0.2720230000D+01  0.2562017589D+00
 SP   3 1.00       0.000000000000
      0.3063310000D+02  0.1119060795D+00  0.3831191864D-01
      0.7026140000D+01  0.9216666549D+00  0.2374031155D+00
      0.2112050000D+01 -0.2569191826D-02  0.8175923978D+00
 SP   1 1.00       0.000000000000
      0.6840090000D+00  0.1000000000D+01  0.1000000000D+01
 SP   1 1.00       0.000000000000
      0.2008780000D+00  0.1000000000D+01  0.1000000000D+01
 D   1 1.00       0.000000000000
      0.9130000000D+00  0.1000000000D+01
 ****
      2 0
 S   6 1.00       0.000000000000
      0.6293480000D+04  0.1969788147D-02
      0.9490440000D+03  0.1496128592D-01
      0.2187760000D+03  0.7350053084D-01
      0.6369160000D+02  0.2489367658D+00
      0.1882820000D+02  0.6024594331D+00
      0.2720230000D+01  0.2562017589D+00
 SP   3 1.00       0.000000000000
      0.3063310000D+02  0.1119060795D+00  0.3831191864D-01
      0.7026140000D+01  0.9216666549D+00  0.2374031155D+00
      0.2112050000D+01 -0.2569191826D-02  0.8175923978D+00
 SP   1 1.00       0.000000000000
      0.6840090000D+00  0.1000000000D+01  0.1000000000D+01
 SP   1 1.00       0.000000000000
      0.2008780000D+00  0.1000000000D+01  0.1000000000D+01
 D   1 1.00       0.000000000000
      0.9130000000D+00  0.1000000000D+01
 ****
      3 0
 S   6 1.00       0.000000000000
      0.6293480000D+04  0.1969788147D-02
      0.9490440000D+03  0.1496128592D-01
      0.2187760000D+03  0.7350053084D-01
      0.6369160000D+02  0.2489367658D+00
      0.1882820000D+02  0.6024594331D+00
      0.2720230000D+01  0.2562017589D+00
 SP   3 1.00       0.000000000000
      0.3063310000D+02  0.1119060795D+00  0.3831191864D-01
      0.7026140000D+01  0.9216666549D+00  0.2374031155D+00
      0.2112050000D+01 -0.2569191826D-02  0.8175923978D+00
 SP   1 1.00       0.000000000000
      0.6840090000D+00  0.1000000000D+01  0.1000000000D+01
 SP   1 1.00       0.000000000000
      0.2008780000D+00  0.1000000000D+01  0.1000000000D+01
 D   1 1.00       0.000000000000
      0.9130000000D+00  0.1000000000D+01
 ****
      4 0
 S   3 1.00       0.000000000000
      0.3386500000D+02  0.2549381454D-01
      0.5094790000D+01  0.1903731086D+00
      0.1158790000D+01  0.8521614860D+00
 S   1 1.00       0.000000000000
      0.3258400000D+00  0.1000000000D+01
 S   1 1.00       0.000000000000
      0.1027410000D+00  0.1000000000D+01
 P   1 1.00       0.000000000000
      0.7500000000D+00  0.1000000000D+01
 ****
      5 0
 S   3 1.00       0.000000000000
      0.3386500000D+02  0.2549381454D-01
      0.5094790000D+01  0.1903731086D+00
      0.1158790000D+01  0.8521614860D+00
 S   1 1.00       0.000000000000
      0.3258400000D+00  0.1000000000D+01
 S   1 1.00       0.000000000000
      0.1027410000D+00  0.1000000000D+01
 P   1 1.00       0.000000000000
      0.7500000000D+00  0.1000000000D+01
 ****

 There are    66 symmetry adapted basis functions of A   symmetry.
 Integral buffers will be    131072 words long.
 Raffenetti 2 integral format.
 Two-electron integral symmetry is turned on.
    66 basis functions,   112 primitive gaussians,    69 cartesian basis functions
    12 alpha electrons       11 beta electrons
       nuclear repulsion energy        66.9349293743 Hartrees.
 IExCor= 4235 DFT=T Ex+Corr=M06 ExCW=0 ScaHFX=  0.270000
 ScaDFX=  1.000000  1.000000  1.000000  1.000000 ScalE2=  1.000000  1.000000
 IRadAn=      0 IRanWt=     -1 IRanGd=            0 ICorTp=0
 NAtoms=    5 NActive=    5 NUniq=    5 SFac= 7.50D-01 NAtFMM=   80 NAOKFM=F Big=F
 Leave Link  301 at Fri Apr 25 17:09:51 2014, MaxMem=   65536000 cpu:       0.4
 (Enter /apps/gaussian/g09/l302.exe)
 NPDir=0 NMtPBC=     1 NCelOv=     1 NCel=       1 NClECP=     1 NCelD=      1
         NCelK=      1 NCelE2=     1 NClLst=     1 CellRange=     0.0.
 One-electron integrals computed using PRISM.
 NBasis=    66 RedAO= T  NBF=    66
 NBsUse=    66 1.00D-06 NBFU=    66
 Precomputing XC quadrature grid using
 IXCGrd= 2 IRadAn=           0 IRanWt=          -1 IRanGd=           0 AccXCQ= 1.00D-10.
 NRdTot=     311 NPtTot=       39306 NUsed=       41561 NTot=       41593
 NSgBfM=    69    69    69    69    69 NAtAll=     5     5.
 Leave Link  302 at Fri Apr 25 17:09:52 2014, MaxMem=   65536000 cpu:       2.0
 (Enter /apps/gaussian/g09/l303.exe)
 DipDrv:  MaxL=1.
 Leave Link  303 at Fri Apr 25 17:09:52 2014, MaxMem=   65536000 cpu:       0.2
 (Enter /apps/gaussian/g09/l401.exe)
 Harris functional with IExCor= 1009 diagonalized for initial guess.
 ExpMin= 1.03D-01 ExpMax= 6.29D+03 ExpMxC= 9.49D+02 IAcc=1 IRadAn=         1 AccDes= 0.00D+00
 HarFok:  IExCor= 1009 AccDes= 0.00D+00 IRadAn=         1 IDoV= 1
 ScaDFX=  1.000000  1.000000  1.000000  1.000000
 FoFCou: FMM=F IPFlag=           0 FMFlag=      100000 FMFlg1=           0
         NFxFlg=           0 DoJE=T BraDBF=F KetDBF=T FulRan=T
         Omega=  0.000000  0.000000  1.000000  0.000000  0.000000 ICntrl=     500 IOpCl=  0
         NMat0=    1 NMatS0=    1 NMatT0=    0 NMatD0=    1 NMtDS0=    0 NMtDT0=    0
         I1Cent=           4 NGrid=           0.
 Petite list used in FoFCou.
 Harris En= -165.218184436629    
 Initial guess orbital symmetries:
 Alpha Orbitals:
       Occupied  (A) (A) (A) (A) (A) (A) (A) (A) (A) (A) (A) (A)
       Virtual   (A) (A) (A) (A) (A) (A) (A) (A) (A) (A) (A) (A)
                 (A) (A) (A) (A) (A) (A) (A) (A) (A) (A) (A) (A)
                 (A) (A) (A) (A) (A) (A) (A) (A) (A) (A) (A) (A)
                 (A) (A) (A) (A) (A) (A) (A) (A) (A) (A) (A) (A)
                 (A) (A) (A) (A) (A) (A)
 Beta  Orbitals:
       Occupied  (A) (A) (A) (A) (A) (A) (A) (A) (A) (A) (A)
       Virtual   (A) (A) (A) (A) (A) (A) (A) (A) (A) (A) (A) (A)
                 (A) (A) (A) (A) (A) (A) (A) (A) (A) (A) (A) (A)
                 (A) (A) (A) (A) (A) (A) (A) (A) (A) (A) (A) (A)
                 (A) (A) (A) (A) (A) (A) (A) (A) (A) (A) (A) (A)
                 (A) (A) (A) (A) (A) (A) (A)
 The electronic state of the initial guess is 2-A.
 Initial guess <Sx>= 0.0000 <Sy>= 0.0000 <Sz>= 0.5000 <S**2>= 0.7500 S= 0.5000
 Leave Link  401 at Fri Apr 25 17:09:52 2014, MaxMem=   65536000 cpu:       1.7
 (Enter /apps/gaussian/g09/l502.exe)
 UHF open shell SCF:
 Requested convergence on RMS density matrix=1.00D-08 within 128 cycles.
 Requested convergence on MAX density matrix=1.00D-06.
 Requested convergence on             energy=1.00D-06.
 No special actions if energy rises.
 Using DIIS extrapolation, IDIIS=  1040.
 Integral symmetry usage will be decided dynamically.
        41503 words used for storage of precomputed grid.
 Keep R1 and R2 ints in memory in canonical form, NReq=6799076.
 IEnd=       75273 IEndB=       75273 NGot=    65536000 MDV=    59647530
 LenX=    59647530 LenY=    59642328
 Symmetry not used in FoFDir.
 MinBra= 0 MaxBra= 2 Meth= 1.
 IRaf=       0 NMat=   1 IRICut=       1 DoRegI=T DoRafI=F ISym2E= 0 JSym2E=0.
 Integral accuracy reduced to 1.0D-05 until final iterations.

 Cycle   1  Pass 0  IDiag  1:
 E= -165.209203658305    
 DIIS: error= 3.26D-02 at cycle   1 NSaved=   1.
 NSaved= 1 IEnMin= 1 EnMin= -165.209203658305     IErMin= 1 ErrMin= 3.26D-02
 ErrMax= 3.26D-02 EMaxC= 1.00D-01 BMatC= 2.16D-01 BMatP= 2.16D-01
 IDIUse=3 WtCom= 6.74D-01 WtEn= 3.26D-01
 Coeff-Com:  0.100D+01
 Coeff-En:   0.100D+01
 Coeff:      0.100D+01
 Gap=     0.155 Goal=   None    Shift=    0.000
 Gap=     0.298 Goal=   None    Shift=    0.000
 GapD=    0.155 DampG=1.000 DampE=0.500 DampFc=0.5000 IDamp=-1.
 Damping current iteration by 5.00D-01
 RMSDP=1.17D-02 MaxDP=3.43D-01              OVMax= 3.30D-01

 Cycle   2  Pass 0  IDiag  1:
 E= -165.217185366522     Delta-E=       -0.007981708217 Rises=F Damp=T
 DIIS: error= 1.73D-02 at cycle   2 NSaved=   2.
 NSaved= 2 IEnMin= 2 EnMin= -165.217185366522     IErMin= 2 ErrMin= 1.73D-02
 ErrMax= 1.73D-02 EMaxC= 1.00D-01 BMatC= 5.58D-02 BMatP= 2.16D-01
 IDIUse=3 WtCom= 8.27D-01 WtEn= 1.73D-01
 Coeff-Com:  0.278D+00 0.722D+00
 Coeff-En:   0.425D+00 0.575D+00
 Coeff:      0.303D+00 0.697D+00
 Gap=     0.149 Goal=   None    Shift=    0.000
 Gap=     0.284 Goal=   None    Shift=    0.000
 RMSDP=3.00D-03 MaxDP=9.22D-02 DE=-7.98D-03 OVMax= 2.30D-01

 Cycle   3  Pass 0  IDiag  1:
 E= -165.252827990963     Delta-E=       -0.035642624441 Rises=F Damp=F
 DIIS: error= 1.50D-02 at cycle   3 NSaved=   3.
 NSaved= 3 IEnMin= 3 EnMin= -165.252827990963     IErMin= 3 ErrMin= 1.50D-02
 ErrMax= 1.50D-02 EMaxC= 1.00D-01 BMatC= 3.82D-02 BMatP= 5.58D-02
 IDIUse=3 WtCom= 8.50D-01 WtEn= 1.50D-01
 Coeff-Com:  0.102D+00 0.430D+00 0.469D+00
 Coeff-En:   0.000D+00 0.000D+00 0.100D+01
 Coeff:      0.863D-01 0.365D+00 0.548D+00
 Gap=     0.145 Goal=   None    Shift=    0.000
 Gap=     0.288 Goal=   None    Shift=    0.000
 RMSDP=1.41D-03 MaxDP=2.16D-02 DE=-3.56D-02 OVMax= 5.03D-02

 Cycle   4  Pass 0  IDiag  1:
 E= -165.258741720777     Delta-E=       -0.005913729814 Rises=F Damp=F
 DIIS: error= 7.79D-03 at cycle   4 NSaved=   4.
 NSaved= 4 IEnMin= 4 EnMin= -165.258741720777     IErMin= 4 ErrMin= 7.79D-03
 ErrMax= 7.79D-03 EMaxC= 1.00D-01 BMatC= 1.01D-02 BMatP= 3.82D-02
 IDIUse=3 WtCom= 9.22D-01 WtEn= 7.79D-02
 Coeff-Com:  0.180D-01 0.888D-02 0.330D+00 0.643D+00
 Coeff-En:   0.000D+00 0.000D+00 0.246D+00 0.754D+00
 Coeff:      0.166D-01 0.819D-02 0.324D+00 0.651D+00
 Gap=     0.149 Goal=   None    Shift=    0.000
 Gap=     0.283 Goal=   None    Shift=    0.000
 RMSDP=6.53D-04 MaxDP=1.49D-02 DE=-5.91D-03 OVMax= 1.89D-02

 Cycle   5  Pass 0  IDiag  1:
 E= -165.260836861866     Delta-E=       -0.002095141089 Rises=F Damp=F
 DIIS: error= 8.62D-04 at cycle   5 NSaved=   5.
 NSaved= 5 IEnMin= 5 EnMin= -165.260836861866     IErMin= 5 ErrMin= 8.62D-04
 ErrMax= 8.62D-04 EMaxC= 1.00D-01 BMatC= 9.40D-05 BMatP= 1.01D-02
 IDIUse=3 WtCom= 9.91D-01 WtEn= 8.62D-03
 Coeff-Com: -0.206D-02-0.211D-01 0.352D-01 0.137D+00 0.851D+00
 Coeff-En:   0.000D+00 0.000D+00 0.000D+00 0.000D+00 0.100D+01
 Coeff:     -0.204D-02-0.210D-01 0.349D-01 0.136D+00 0.852D+00
 Gap=     0.149 Goal=   None    Shift=    0.000
 Gap=     0.284 Goal=   None    Shift=    0.000
 RMSDP=1.09D-04 MaxDP=2.39D-03 DE=-2.10D-03 OVMax= 4.53D-03

 Cycle   6  Pass 0  IDiag  1:
 E= -165.260877690092     Delta-E=       -0.000040828226 Rises=F Damp=F
 DIIS: error= 4.80D-04 at cycle   6 NSaved=   6.
 NSaved= 6 IEnMin= 6 EnMin= -165.260877690092     IErMin= 6 ErrMin= 4.80D-04
 ErrMax= 4.80D-04 EMaxC= 1.00D-01 BMatC= 2.98D-05 BMatP= 9.40D-05
 IDIUse=3 WtCom= 9.95D-01 WtEn= 4.80D-03
 Coeff-Com: -0.356D-02-0.794D-02-0.367D-01-0.531D-01 0.346D+00 0.755D+00
 Coeff-En:   0.000D+00 0.000D+00 0.000D+00 0.000D+00 0.000D+00 0.100D+01
 Coeff:     -0.354D-02-0.790D-02-0.366D-01-0.528D-01 0.344D+00 0.756D+00
 Gap=     0.150 Goal=   None    Shift=    0.000
 Gap=     0.284 Goal=   None    Shift=    0.000
 RMSDP=1.12D-04 MaxDP=2.96D-03 DE=-4.08D-05 OVMax= 3.72D-03

 Cycle   7  Pass 0  IDiag  1:
 E= -165.260893025644     Delta-E=       -0.000015335551 Rises=F Damp=F
 DIIS: error= 2.58D-04 at cycle   7 NSaved=   7.
 NSaved= 7 IEnMin= 7 EnMin= -165.260893025644     IErMin= 7 ErrMin= 2.58D-04
 ErrMax= 2.58D-04 EMaxC= 1.00D-01 BMatC= 1.06D-05 BMatP= 2.98D-05
 IDIUse=3 WtCom= 9.97D-01 WtEn= 2.58D-03
 Coeff-Com: -0.375D-03 0.242D-02-0.204D-01-0.531D-01-0.186D+00 0.356D+00
 Coeff-Com:  0.901D+00
 Coeff-En:   0.000D+00 0.000D+00 0.000D+00 0.000D+00 0.000D+00 0.000D+00
 Coeff-En:   0.100D+01
 Coeff:     -0.374D-03 0.241D-02-0.204D-01-0.529D-01-0.186D+00 0.355D+00
 Coeff:      0.902D+00
 Gap=     0.150 Goal=   None    Shift=    0.000
 Gap=     0.284 Goal=   None    Shift=    0.000
 RMSDP=4.75D-05 MaxDP=8.95D-04 DE=-1.53D-05 OVMax= 1.95D-03

 Cycle   8  Pass 0  IDiag  1:
 E= -165.260899476786     Delta-E=       -0.000006451142 Rises=F Damp=F
 DIIS: error= 1.02D-04 at cycle   8 NSaved=   8.
 NSaved= 8 IEnMin= 8 EnMin= -165.260899476786     IErMin= 8 ErrMin= 1.02D-04
 ErrMax= 1.02D-04 EMaxC= 1.00D-01 BMatC= 5.90D-07 BMatP= 1.06D-05
 IDIUse=3 WtCom= 9.99D-01 WtEn= 1.02D-03
 Coeff-Com:  0.720D-03 0.362D-03 0.731D-02 0.133D-01-0.257D-01-0.150D+00
 Coeff-Com: -0.131D+00 0.128D+01
 Coeff-En:   0.000D+00 0.000D+00 0.000D+00 0.000D+00 0.000D+00 0.000D+00
 Coeff-En:   0.000D+00 0.100D+01
 Coeff:      0.719D-03 0.361D-03 0.731D-02 0.133D-01-0.256D-01-0.149D+00
 Coeff:     -0.131D+00 0.128D+01
 Gap=     0.150 Goal=   None    Shift=    0.000
 Gap=     0.284 Goal=   None    Shift=    0.000
 RMSDP=2.13D-05 MaxDP=3.69D-04 DE=-6.45D-06 OVMax= 1.17D-03

 Cycle   9  Pass 0  IDiag  1:
 E= -165.260900519152     Delta-E=       -0.000001042366 Rises=F Damp=F
 DIIS: error= 3.07D-05 at cycle   9 NSaved=   9.
 NSaved= 9 IEnMin= 9 EnMin= -165.260900519152     IErMin= 9 ErrMin= 3.07D-05
 ErrMax= 3.07D-05 EMaxC= 1.00D-01 BMatC= 9.14D-08 BMatP= 5.90D-07
 IDIUse=1 WtCom= 1.00D+00 WtEn= 0.00D+00
 Coeff-Com:  0.200D-04-0.133D-03 0.230D-02 0.692D-02 0.251D-01-0.561D-01
 Coeff-Com: -0.105D+00-0.740D-01 0.120D+01
 Coeff:      0.200D-04-0.133D-03 0.230D-02 0.692D-02 0.251D-01-0.561D-01
 Coeff:     -0.105D+00-0.740D-01 0.120D+01
 Gap=     0.150 Goal=   None    Shift=    0.000
 Gap=     0.284 Goal=   None    Shift=    0.000
 RMSDP=7.62D-06 MaxDP=1.43D-04 DE=-1.04D-06 OVMax= 4.30D-04

 Initial convergence to 1.0D-05 achieved.  Increase integral accuracy.
 Cycle  10  Pass 1  IDiag  1:
 E= -165.260857382434     Delta-E=        0.000043136718 Rises=F Damp=F
 DIIS: error= 1.38D-04 at cycle   1 NSaved=   1.
 NSaved= 1 IEnMin= 1 EnMin= -165.260857382434     IErMin= 1 ErrMin= 1.38D-04
 ErrMax= 1.38D-04 EMaxC= 1.00D-01 BMatC= 9.31D-06 BMatP= 9.31D-06
 IDIUse=3 WtCom= 9.99D-01 WtEn= 1.38D-03
 Coeff-Com:  0.100D+01
 Coeff-En:   0.100D+01
 Coeff:      0.100D+01
 Gap=     0.150 Goal=   None    Shift=    0.000
 Gap=     0.284 Goal=   None    Shift=    0.000
 RMSDP=7.62D-06 MaxDP=1.43D-04 DE= 4.31D-05 OVMax= 3.72D-04

 Cycle  11  Pass 1  IDiag  1:
 E= -165.260859368141     Delta-E=       -0.000001985708 Rises=F Damp=F
 DIIS: error= 1.39D-05 at cycle   2 NSaved=   2.
 NSaved= 2 IEnMin= 2 EnMin= -165.260859368141     IErMin= 2 ErrMin= 1.39D-05
 ErrMax= 1.39D-05 EMaxC= 1.00D-01 BMatC= 7.33D-08 BMatP= 9.31D-06
 IDIUse=1 WtCom= 1.00D+00 WtEn= 0.00D+00
 Coeff-Com: -0.131D-01 0.101D+01
 Coeff:     -0.131D-01 0.101D+01
 Gap=     0.150 Goal=   None    Shift=    0.000
 Gap=     0.284 Goal=   None    Shift=    0.000
 RMSDP=6.88D-06 MaxDP=9.10D-05 DE=-1.99D-06 OVMax= 7.15D-05

 Cycle  12  Pass 1  IDiag  1:
 E= -165.260859378669     Delta-E=       -0.000000010528 Rises=F Damp=F
 DIIS: error= 1.50D-05 at cycle   3 NSaved=   3.
 NSaved= 3 IEnMin= 3 EnMin= -165.260859378669     IErMin= 2 ErrMin= 1.39D-05
 ErrMax= 1.50D-05 EMaxC= 1.00D-01 BMatC= 5.02D-08 BMatP= 7.33D-08
 IDIUse=1 WtCom= 1.00D+00 WtEn= 0.00D+00
 Coeff-Com: -0.125D-01 0.454D+00 0.559D+00
 Coeff:     -0.125D-01 0.454D+00 0.559D+00
 Gap=     0.150 Goal=   None    Shift=    0.000
 Gap=     0.284 Goal=   None    Shift=    0.000
 RMSDP=2.34D-06 MaxDP=4.84D-05 DE=-1.05D-08 OVMax= 8.02D-05

 Cycle  13  Pass 1  IDiag  1:
 E= -165.260859387674     Delta-E=       -0.000000009004 Rises=F Damp=F
 DIIS: error= 7.40D-06 at cycle   4 NSaved=   4.
 NSaved= 4 IEnMin= 4 EnMin= -165.260859387674     IErMin= 4 ErrMin= 7.40D-06
 ErrMax= 7.40D-06 EMaxC= 1.00D-01 BMatC= 1.16D-08 BMatP= 5.02D-08
 IDIUse=1 WtCom= 1.00D+00 WtEn= 0.00D+00
 Coeff-Com: -0.488D-02 0.965D-01 0.330D+00 0.579D+00
 Coeff:     -0.488D-02 0.965D-01 0.330D+00 0.579D+00
 Gap=     0.150 Goal=   None    Shift=    0.000
 Gap=     0.284 Goal=   None    Shift=    0.000
 RMSDP=6.65D-07 MaxDP=1.44D-05 DE=-9.00D-09 OVMax= 1.97D-05

 Cycle  14  Pass 1  IDiag  1:
 E= -165.260859389584     Delta-E=       -0.000000001910 Rises=F Damp=F
 DIIS: error= 3.41D-06 at cycle   5 NSaved=   5.
 NSaved= 5 IEnMin= 5 EnMin= -165.260859389584     IErMin= 5 ErrMin= 3.41D-06
 ErrMax= 3.41D-06 EMaxC= 1.00D-01 BMatC= 1.35D-09 BMatP= 1.16D-08
 IDIUse=1 WtCom= 1.00D+00 WtEn= 0.00D+00
 Coeff-Com: -0.182D-02 0.109D-01 0.140D+00 0.319D+00 0.532D+00
 Coeff:     -0.182D-02 0.109D-01 0.140D+00 0.319D+00 0.532D+00
 Gap=     0.150 Goal=   None    Shift=    0.000
 Gap=     0.284 Goal=   None    Shift=    0.000
 RMSDP=3.61D-07 MaxDP=5.06D-06 DE=-1.91D-09 OVMax= 1.27D-05

 Cycle  15  Pass 1  IDiag  1:
 E= -165.260859389840     Delta-E=       -0.000000000256 Rises=F Damp=F
 DIIS: error= 1.99D-06 at cycle   6 NSaved=   6.
 NSaved= 6 IEnMin= 6 EnMin= -165.260859389840     IErMin= 6 ErrMin= 1.99D-06
 ErrMax= 1.99D-06 EMaxC= 1.00D-01 BMatC= 5.26D-10 BMatP= 1.35D-09
 IDIUse=1 WtCom= 1.00D+00 WtEn= 0.00D+00
 Coeff-Com: -0.398D-04-0.173D-01 0.241D-01 0.727D-01 0.384D+00 0.537D+00
 Coeff:     -0.398D-04-0.173D-01 0.241D-01 0.727D-01 0.384D+00 0.537D+00
 Gap=     0.150 Goal=   None    Shift=    0.000
 Gap=     0.284 Goal=   None    Shift=    0.000
 RMSDP=2.43D-07 MaxDP=6.15D-06 DE=-2.56D-10 OVMax= 8.13D-06

 Cycle  16  Pass 1  IDiag  1:
 E= -165.260859389976     Delta-E=       -0.000000000136 Rises=F Damp=F
 DIIS: error= 3.77D-07 at cycle   7 NSaved=   7.
 NSaved= 7 IEnMin= 7 EnMin= -165.260859389976     IErMin= 7 ErrMin= 3.77D-07
 ErrMax= 3.77D-07 EMaxC= 1.00D-01 BMatC= 2.64D-11 BMatP= 5.26D-10
 IDIUse=1 WtCom= 1.00D+00 WtEn= 0.00D+00
 Coeff-Com:  0.343D-03-0.768D-02-0.136D-01-0.398D-01 0.415D-02 0.126D+00
 Coeff-Com:  0.931D+00
 Coeff:      0.343D-03-0.768D-02-0.136D-01-0.398D-01 0.415D-02 0.126D+00
 Coeff:      0.931D+00
 Gap=     0.150 Goal=   None    Shift=    0.000
 Gap=     0.284 Goal=   None    Shift=    0.000
 RMSDP=1.27D-07 MaxDP=2.14D-06 DE=-1.36D-10 OVMax= 6.05D-06

 Cycle  17  Pass 1  IDiag  1:
 E= -165.260859389997     Delta-E=       -0.000000000021 Rises=F Damp=F
 DIIS: error= 1.63D-07 at cycle   8 NSaved=   8.
 NSaved= 8 IEnMin= 8 EnMin= -165.260859389997     IErMin= 8 ErrMin= 1.63D-07
 ErrMax= 1.63D-07 EMaxC= 1.00D-01 BMatC= 7.52D-12 BMatP= 2.64D-11
 IDIUse=1 WtCom= 1.00D+00 WtEn= 0.00D+00
 Coeff-Com:  0.129D-03 0.130D-02-0.970D-02-0.337D-01-0.900D-01-0.797D-01
 Coeff-Com:  0.384D+00 0.828D+00
 Coeff:      0.129D-03 0.130D-02-0.970D-02-0.337D-01-0.900D-01-0.797D-01
 Coeff:      0.384D+00 0.828D+00
 Gap=     0.150 Goal=   None    Shift=    0.000
 Gap=     0.284 Goal=   None    Shift=    0.000
 RMSDP=6.57D-08 MaxDP=8.41D-07 DE=-2.10D-11 OVMax= 3.52D-06

 Cycle  18  Pass 1  IDiag  1:
 E= -165.260859390003     Delta-E=       -0.000000000006 Rises=F Damp=F
 DIIS: error= 7.80D-08 at cycle   9 NSaved=   9.
 NSaved= 9 IEnMin= 9 EnMin= -165.260859390003     IErMin= 9 ErrMin= 7.80D-08
 ErrMax= 7.80D-08 EMaxC= 1.00D-01 BMatC= 8.50D-13 BMatP= 7.52D-12
 IDIUse=1 WtCom= 1.00D+00 WtEn= 0.00D+00
 Coeff-Com: -0.453D-04 0.101D-02 0.128D-02 0.732D-02-0.790D-04-0.273D-01
 Coeff-Com: -0.162D+00 0.529D-01 0.113D+01
 Coeff:     -0.453D-04 0.101D-02 0.128D-02 0.732D-02-0.790D-04-0.273D-01
 Coeff:     -0.162D+00 0.529D-01 0.113D+01
 Gap=     0.150 Goal=   None    Shift=    0.000
 Gap=     0.284 Goal=   None    Shift=    0.000
 RMSDP=3.75D-08 MaxDP=4.97D-07 DE=-6.08D-12 OVMax= 2.11D-06

 Cycle  19  Pass 1  IDiag  1:
 E= -165.260859390005     Delta-E=       -0.000000000002 Rises=F Damp=F
 DIIS: error= 2.74D-08 at cycle  10 NSaved=  10.
 NSaved=10 IEnMin=10 EnMin= -165.260859390005     IErMin=10 ErrMin= 2.74D-08
 ErrMax= 2.74D-08 EMaxC= 1.00D-01 BMatC= 1.47D-13 BMatP= 8.50D-13
 IDIUse=1 WtCom= 1.00D+00 WtEn= 0.00D+00
 Coeff-Com: -0.268D-04-0.649D-04 0.121D-02 0.667D-02 0.165D-01 0.152D-01
 Coeff-Com: -0.681D-01-0.137D+00-0.981D-01 0.126D+01
 Coeff:     -0.268D-04-0.649D-04 0.121D-02 0.667D-02 0.165D-01 0.152D-01
 Coeff:     -0.681D-01-0.137D+00-0.981D-01 0.126D+01
 Gap=     0.150 Goal=   None    Shift=    0.000
 Gap=     0.284 Goal=   None    Shift=    0.000
 RMSDP=2.17D-08 MaxDP=3.99D-07 DE=-2.10D-12 OVMax= 1.16D-06

 Cycle  20  Pass 1  IDiag  1:
 E= -165.260859390004     Delta-E=        0.000000000001 Rises=F Damp=F
 DIIS: error= 1.16D-08 at cycle  11 NSaved=  11.
 NSaved=11 IEnMin=10 EnMin= -165.260859390005     IErMin=11 ErrMin= 1.16D-08
 ErrMax= 1.16D-08 EMaxC= 1.00D-01 BMatC= 1.50D-14 BMatP= 1.47D-13
 IDIUse=1 WtCom= 1.00D+00 WtEn= 0.00D+00
 Coeff-Com:  0.615D-05-0.126D-03-0.412D-03-0.978D-03-0.295D-03 0.201D-02
 Coeff-Com:  0.264D-01-0.184D-02-0.160D+00-0.201D-01 0.116D+01
 Coeff:      0.615D-05-0.126D-03-0.412D-03-0.978D-03-0.295D-03 0.201D-02
 Coeff:      0.264D-01-0.184D-02-0.160D+00-0.201D-01 0.116D+01
 Gap=     0.150 Goal=   None    Shift=    0.000
 Gap=     0.284 Goal=   None    Shift=    0.000
 RMSDP=6.56D-09 MaxDP=1.35D-07 DE= 5.12D-13 OVMax= 3.34D-07

 SCF Done:  E(UM06) =  -165.260859390     A.U. after   20 cycles
             Convg  =    0.6555D-08             -V/T =  2.0017
 <Sx>= 0.0000 <Sy>= 0.0000 <Sz>= 0.5000 <S**2>= 0.7543 S= 0.5022
 <L.S>=  0.00000000000    
 KE= 1.649748300685D+02 PE=-5.209759360016D+02 EE= 1.238053171688D+02
 Annihilation of the first spin contaminant:
 S**2 before annihilation     0.7543,   after     0.7500
 Leave Link  502 at Fri Apr 25 17:09:53 2014, MaxMem=   65536000 cpu:      17.2
 (Enter /apps/gaussian/g09/l801.exe)
 Range of M.O.s used for correlation:     1    66
 NBasis=    66 NAE=    12 NBE=    11 NFC=     0 NFV=     0
 NROrb=     66 NOA=    12 NOB=    11 NVA=    54 NVB=    55
 Leave Link  801 at Fri Apr 25 17:09:53 2014, MaxMem=   65536000 cpu:       0.1
 (Enter /apps/gaussian/g09/l1101.exe)
 Using compressed storage, NAtomX=     5.
 Will process   6 centers per pass.
 Leave Link 1101 at Fri Apr 25 17:09:53 2014, MaxMem=   65536000 cpu:       1.4
 (Enter /apps/gaussian/g09/l1102.exe)
 Symmetrizing basis deriv contribution to polar:
 IMax=3 JMax=2 DiffMx= 0.00D+00
 Leave Link 1102 at Fri Apr 25 17:09:54 2014, MaxMem=   65536000 cpu:       0.2
 (Enter /apps/gaussian/g09/l1110.exe)
 Forming Gx(P) for the SCF density, NAtomX=     5.
 Integral derivatives from FoFDir/FoFCou, PRISM(SPDF).
 Do as many integral derivatives as possible in FoFDir.
 G2DrvN: MDV=      65535856.
 G2DrvN: will do     6 centers at a time, making    1 passes doing MaxLOS=2.
 Calling FoFCou, ICntrl=  3107 FMM=F I1Cent=   0 AccDes= 0.00D+00.
 FoFCou: FMM=F IPFlag=           0 FMFlag=      100000 FMFlg1=           0
         NFxFlg=           0 DoJE=F BraDBF=F KetDBF=F FulRan=T
         Omega=  0.000000  0.000000  1.000000  0.000000  0.000000 ICntrl=    3107 IOpCl=  1
         NMat0=    1 NMatS0=    1 NMatT0=    0 NMatD0=    1 NMtDS0=    0 NMtDT0=    0
         I1Cent=           0 NGrid=           0.
 Symmetry not used in FoFCou.
 FoFDir/FoFCou used for L=0 through L=2.
 End of G2Drv Frequency-dependent properties file   721 does not exist.
 End of G2Drv Frequency-dependent properties file   722 does not exist.
 Leave Link 1110 at Fri Apr 25 17:09:55 2014, MaxMem=   65536000 cpu:      16.7
 (Enter /apps/gaussian/g09/l1002.exe)
 Minotr:  UHF open shell wavefunction.
          IDoAtm=11111
          Direct CPHF calculation.
          Differentiating once with respect to electric field.
                with respect to dipole field.
          Differentiating once with respect to nuclear coordinates.
          Requested convergence is 1.0D-08 RMS, and 1.0D-07 maximum.
          Secondary convergence is 1.0D-12 RMS, and 1.0D-12 maximum.
          NewPWx=T KeepS1=F KeepF1=F KeepIn=T MapXYZ=F SortEE=F KeepMc=T.
          MDV=      65535946 using IRadAn=       2.
 Generate precomputed XC quadrature information.
          Keep R1 and R2 ints in memory in canonical form, NReq=6656460.
 Symmetry not used in FoFDir.
 MinBra= 0 MaxBra= 2 Meth= 1.
 IRaf=       0 NMat=   1 IRICut=       1 DoRegI=T DoRafI=F ISym2E= 0 JSym2E=0.
          Solving linear equations simultaneously, MaxMat=       0.
          There are    18 degrees of freedom in the 1st order CPHF.  IDoFFX=5.
     15 vectors produced by pass  0 Test12= 6.96D-15 5.56D-09 XBig12= 1.31D+02 5.08D+00.
 AX will form    15 AO Fock derivatives at one time.
     15 vectors produced by pass  1 Test12= 6.96D-15 5.56D-09 XBig12= 3.31D+01 1.63D+00.
     15 vectors produced by pass  2 Test12= 6.96D-15 5.56D-09 XBig12= 1.03D+00 2.36D-01.
     15 vectors produced by pass  3 Test12= 6.96D-15 5.56D-09 XBig12= 1.47D-02 2.48D-02.
     15 vectors produced by pass  4 Test12= 6.96D-15 5.56D-09 XBig12= 2.19D-04 3.73D-03.
     15 vectors produced by pass  5 Test12= 6.96D-15 5.56D-09 XBig12= 2.89D-06 4.25D-04.
     14 vectors produced by pass  6 Test12= 6.96D-15 5.56D-09 XBig12= 2.04D-08 2.55D-05.
      7 vectors produced by pass  7 Test12= 6.96D-15 5.56D-09 XBig12= 8.72D-11 1.57D-06.
      2 vectors produced by pass  8 Test12= 6.96D-15 5.56D-09 XBig12= 3.22D-13 1.00D-07.
 Inverted reduced A of dimension   113 with in-core refinement.
 FullF1:  Do perturbations    1 to     3.
 Isotropic polarizability for W=    0.000000       25.89 Bohr**3.
 End of Minotr Frequency-dependent properties file   721 does not exist.
 End of Minotr Frequency-dependent properties file   722 does not exist.
 Leave Link 1002 at Fri Apr 25 17:09:57 2014, MaxMem=   65536000 cpu:      26.8
 (Enter /apps/gaussian/g09/l601.exe)
 Copying SCF densities to generalized density rwf, IOpCl= 1 IROHF=0.

 **********************************************************************

            Population analysis using the SCF density.

 **********************************************************************

 Orbital symmetries:
 Alpha Orbitals:
       Occupied  (A) (A) (A) (A) (A) (A) (A) (A) (A) (A) (A) (A)
       Virtual   (A) (A) (A) (A) (A) (A) (A) (A) (A) (A) (A) (A)
                 (A) (A) (A) (A) (A) (A) (A) (A) (A) (A) (A) (A)
                 (A) (A) (A) (A) (A) (A) (A) (A) (A) (A) (A) (A)
                 (A) (A) (A) (A) (A) (A) (A) (A) (A) (A) (A) (A)
                 (A) (A) (A) (A) (A) (A)
 Beta  Orbitals:
       Occupied  (A) (A) (A) (A) (A) (A) (A) (A) (A) (A) (A)
       Virtual   (A) (A) (A) (A) (A) (A) (A) (A) (A) (A) (A) (A)
                 (A) (A) (A) (A) (A) (A) (A) (A) (A) (A) (A) (A)
                 (A) (A) (A) (A) (A) (A) (A) (A) (A) (A) (A) (A)
                 (A) (A) (A) (A) (A) (A) (A) (A) (A) (A) (A) (A)
                 (A) (A) (A) (A) (A) (A) (A)
 The electronic state is 2-A.
 Alpha  occ. eigenvalues --  -14.49011 -14.47643 -14.42053  -1.12450  -0.97895
 Alpha  occ. eigenvalues --   -0.67363  -0.57817  -0.49810  -0.45392  -0.41913
 Alpha  occ. eigenvalues --   -0.31846  -0.15047
 Alpha virt. eigenvalues --   -0.00089   0.02729   0.06424   0.21064   0.31420
 Alpha virt. eigenvalues --    0.34991   0.43196   0.48720   0.51707   0.57242
 Alpha virt. eigenvalues --    0.60844   0.66119   0.70068   0.70338   0.74075
 Alpha virt. eigenvalues --    0.77860   0.87399   0.97562   1.14547   1.26647
 Alpha virt. eigenvalues --    1.37929   1.50042   1.57544   1.63903   1.68704
 Alpha virt. eigenvalues --    1.72572   1.74892   1.87529   1.94792   2.09448
 Alpha virt. eigenvalues --    2.12119   2.25871   2.35897   2.38146   2.47565
 Alpha virt. eigenvalues --    2.49372   2.62922   2.68796   2.85359   3.07785
 Alpha virt. eigenvalues --    3.16456   3.45402   3.57174   3.64468   3.87548
 Alpha virt. eigenvalues --    3.91068   3.93192   4.23178   4.31867   4.48105
 Alpha virt. eigenvalues --    5.13574  35.03936  35.42053  36.05031
  Beta  occ. eigenvalues --  -14.48536 -14.47566 -14.40939  -1.10581  -0.95980
  Beta  occ. eigenvalues --   -0.66287  -0.56203  -0.49023  -0.41951  -0.38063
  Beta  occ. eigenvalues --   -0.31151
  Beta virt. eigenvalues --   -0.02765   0.01326   0.03535   0.07924   0.21937
  Beta virt. eigenvalues --    0.32041   0.34938   0.43335   0.48739   0.51723
  Beta virt. eigenvalues --    0.58083   0.60951   0.66494   0.70655   0.71555
  Beta virt. eigenvalues --    0.74292   0.78237   0.88190   0.97717   1.14445
  Beta virt. eigenvalues --    1.26241   1.37311   1.48715   1.56956   1.63346
  Beta virt. eigenvalues --    1.69234   1.74377   1.76106   1.88458   1.94571
  Beta virt. eigenvalues --    2.12558   2.14770   2.26507   2.32776   2.38196
  Beta virt. eigenvalues --    2.46132   2.49271   2.63165   2.68733   2.85913
  Beta virt. eigenvalues --    3.08214   3.18926   3.45361   3.58017   3.70087
  Beta virt. eigenvalues --    3.88030   3.94536   3.97633   4.22551   4.32622
  Beta virt. eigenvalues --    4.47239   5.13617  35.04934  35.42332  36.06161
     Alpha Molecular Orbital Coefficients:
                           1         2         3         4         5
                           O         O         O         O         O
     Eigenvalues --   -14.49011 -14.47643 -14.42053  -1.12450  -0.97895
   1 1   N  1S          0.55742  -0.00686  -0.00356  -0.10029   0.01247
   2        2S          0.46470  -0.00553  -0.00239  -0.15580   0.01886
   3        2PX        -0.00062  -0.00067   0.00105   0.01459  -0.15806
   4        2PY         0.00062   0.00004   0.00016   0.02169  -0.01021
   5        2PZ        -0.00009  -0.00005   0.00003   0.00010  -0.00443
   6        3S          0.01772  -0.00076  -0.00242   0.43850  -0.04981
   7        3PX         0.00256   0.00218  -0.00524   0.00825  -0.21510
   8        3PY         0.00098  -0.00012  -0.00084   0.03157  -0.01246
   9        3PZ         0.00008   0.00016  -0.00017  -0.00023  -0.00574
  10        4S         -0.00549   0.00184   0.00339   0.21395  -0.01936
  11        4PX         0.00081  -0.00594   0.00695  -0.01272  -0.03972
  12        4PY        -0.00072   0.00013   0.00057   0.01216  -0.00605
  13        4PZ        -0.00007  -0.00029   0.00029   0.00094  -0.00068
  14        5D 0       -0.00196   0.00060   0.00127  -0.01284  -0.00148
  15        5D+1        0.00030  -0.00019  -0.00013   0.00147  -0.00020
  16        5D-1        0.00001   0.00002  -0.00003  -0.00016  -0.00021
  17        5D+2        0.00332  -0.00104  -0.00204   0.01919   0.00242
  18        5D-2        0.00053   0.00029  -0.00091   0.00173  -0.00625
  19 2   N  1S          0.00338  -0.00018   0.55734  -0.06033   0.07010
  20        2S          0.00350  -0.00014   0.46522  -0.09334   0.10953
  21        2PX        -0.00081  -0.00006  -0.00167  -0.07187   0.07222
  22        2PY        -0.00021   0.00004  -0.00021  -0.01273   0.01784
  23        2PZ        -0.00002  -0.00002  -0.00006  -0.00219   0.00224
  24        3S         -0.00264  -0.00003   0.01670   0.26218  -0.31042
  25        3PX         0.00487   0.00008  -0.00367  -0.09910   0.09929
  26        3PY         0.00113  -0.00019  -0.00076  -0.01598   0.02487
  27        3PZ         0.00013   0.00005  -0.00011  -0.00301   0.00305
  28        4S         -0.00035   0.00367  -0.01118   0.10569  -0.16763
  29        4PX        -0.00059  -0.00121   0.00376  -0.01876   0.03191
  30        4PY         0.00015  -0.00053   0.00102  -0.00571   0.00712
  31        4PZ         0.00001  -0.00006   0.00009  -0.00073   0.00063
  32        5D 0        0.00143   0.00001  -0.00111  -0.00793   0.00871
  33        5D+1       -0.00013  -0.00003   0.00012   0.00085  -0.00087
  34        5D-1       -0.00003  -0.00001   0.00002   0.00006  -0.00015
  35        5D+2       -0.00217  -0.00013   0.00184   0.01257  -0.01215
  36        5D-2       -0.00114   0.00018   0.00069   0.00396  -0.00687
  37 3   N  1S          0.00682   0.55763   0.00014  -0.05846  -0.08507
  38        2S          0.00593   0.46493   0.00014  -0.09050  -0.13256
  39        2PX         0.00086   0.00088   0.00013   0.04753   0.03304
  40        2PY        -0.00013  -0.00006   0.00005  -0.00805  -0.01522
  41        2PZ        -0.00002   0.00095  -0.00001   0.01229   0.02232
  42        3S         -0.00055   0.01661  -0.00003   0.25355   0.37380
  43        3PX        -0.00307  -0.00001  -0.00034   0.07335   0.05620
  44        3PY         0.00032  -0.00103  -0.00016  -0.00873  -0.02041
  45        3PZ         0.00019   0.00090   0.00005   0.01847   0.03446
  46        4S          0.00205  -0.01003   0.00321   0.11307   0.24592
  47        4PX         0.00144  -0.00293   0.00161   0.00346   0.02001
  48        4PY         0.00033   0.00061  -0.00033  -0.00498  -0.00488
  49        4PZ         0.00029  -0.00042   0.00002   0.00797   0.01693
  50        5D 0        0.00067  -0.00074   0.00004  -0.00611  -0.00693
  51        5D+1       -0.00041  -0.00036  -0.00000   0.00196   0.00109
  52        5D-1        0.00002  -0.00039   0.00001  -0.00127  -0.00230
  53        5D+2       -0.00153   0.00028  -0.00018   0.00852   0.00711
  54        5D-2        0.00064   0.00017  -0.00021  -0.00125  -0.00364
  55 4   H  1S         -0.00023  -0.00010  -0.00004   0.03024   0.06152
  56        2S         -0.00076  -0.00185   0.00004   0.02707   0.05789
  57        3S          0.00066   0.00122   0.00034  -0.01056  -0.00640
  58        4PX        -0.00013  -0.00091   0.00011   0.00567   0.00816
  59        4PY        -0.00055  -0.00173   0.00000   0.00591   0.01129
  60        4PZ         0.00023   0.00105   0.00000  -0.00302  -0.00613
  61 5   H  1S          0.00001   0.00026   0.00001   0.01937   0.03905
  62        2S         -0.00101  -0.00074  -0.00014   0.02043   0.03551
  63        3S          0.00046   0.00072   0.00029  -0.00683  -0.00151
  64        4PX        -0.00031  -0.00014  -0.00001   0.00352   0.00442
  65        4PY         0.00041   0.00087   0.00003  -0.00520  -0.00956
  66        4PZ         0.00011   0.00038   0.00001  -0.00168  -0.00264
                           6         7         8         9        10
                           O         O         O         O         O
     Eigenvalues --    -0.67363  -0.57817  -0.49810  -0.45392  -0.41913
   1 1   N  1S         -0.04829   0.01062  -0.01006   0.03614  -0.00450
   2        2S         -0.07695   0.01735  -0.01614   0.05822  -0.00707
   3        2PX        -0.11593  -0.00406  -0.01667  -0.10345   0.04654
   4        2PY         0.00110   0.13712   0.02696   0.06540   0.16475
   5        2PZ        -0.02461  -0.01582   0.20311   0.00759  -0.02654
   6        3S          0.23274  -0.05261   0.04873  -0.17973   0.02460
   7        3PX        -0.16287  -0.01053  -0.02563  -0.14579   0.06656
   8        3PY         0.00381   0.21049   0.04177   0.09897   0.24792
   9        3PZ        -0.03874  -0.02424   0.31151   0.01154  -0.04011
  10        4S          0.22061  -0.04391   0.04503  -0.22409   0.03358
  11        4PX        -0.09077   0.04538   0.01080  -0.09797   0.02361
  12        4PY         0.00194   0.14108   0.02936   0.07266   0.20814
  13        4PZ        -0.01323  -0.01693   0.22954   0.01178  -0.03658
  14        5D 0       -0.00233  -0.00135  -0.00098  -0.00247  -0.00332
  15        5D+1        0.00439   0.00120  -0.00003   0.00080  -0.00456
  16        5D-1       -0.00121  -0.00067   0.00868   0.00056  -0.00081
  17        5D+2        0.00268  -0.01346  -0.00178  -0.00185  -0.01173
  18        5D-2       -0.00321  -0.01272  -0.00085   0.00873   0.02450
  19 2   N  1S          0.03730  -0.00133   0.01161  -0.07247   0.02882
  20        2S          0.05920  -0.00250   0.01853  -0.11550   0.04605
  21        2PX         0.00693  -0.01072  -0.02332   0.16302  -0.13230
  22        2PY         0.00903   0.06090   0.01488   0.10928   0.14087
  23        2PZ        -0.00647  -0.00714   0.12329   0.01373  -0.03019
  24        3S         -0.17249   0.00908  -0.05403   0.32717  -0.12883
  25        3PX         0.01011  -0.01945  -0.03214   0.21963  -0.18541
  26        3PY         0.01368   0.09268   0.02334   0.15867   0.21242
  27        3PZ        -0.01052  -0.01161   0.18987   0.02000  -0.04516
  28        4S         -0.13407  -0.03867  -0.08618   0.52484  -0.23022
  29        4PX         0.00458   0.01066  -0.01061   0.11208  -0.11568
  30        4PY         0.00267   0.04551   0.01545   0.10246   0.15155
  31        4PZ        -0.00585  -0.00303   0.10654   0.01185  -0.03111
  32        5D 0        0.00185  -0.00144  -0.00259   0.01052  -0.00655
  33        5D+1        0.00267   0.00234  -0.03090  -0.00276   0.00614
  34        5D-1        0.00048  -0.00008  -0.00564  -0.00113   0.00036
  35        5D+2       -0.00107   0.00792   0.00426  -0.01304   0.02045
  36        5D-2       -0.00273  -0.01572  -0.00338  -0.02134  -0.02417
  37 3   N  1S          0.04377  -0.01078   0.01956  -0.00457   0.00346
  38        2S          0.06892  -0.01739   0.03131  -0.00739   0.00541
  39        2PX         0.17783   0.02063   0.02599   0.05203  -0.03186
  40        2PY        -0.00552   0.19009   0.01539  -0.05552  -0.09764
  41        2PZ        -0.04795  -0.02226   0.13257   0.00734   0.00995
  42        3S         -0.18981   0.05157  -0.09629   0.02692  -0.01432
  43        3PX         0.26131   0.03486   0.03537   0.08096  -0.04293
  44        3PY        -0.00976   0.28551   0.02323  -0.08177  -0.14082
  45        3PZ        -0.07331  -0.03186   0.20492   0.01142   0.01220
  46        4S         -0.24382   0.09453  -0.06816   0.00345  -0.05612
  47        4PX         0.11006   0.02796   0.04441   0.05349  -0.04960
  48        4PY        -0.00146   0.16740   0.01083  -0.05310  -0.11069
  49        4PZ        -0.04617  -0.01345   0.15674   0.00547   0.00672
  50        5D 0       -0.00717  -0.00275   0.00971  -0.00102   0.00120
  51        5D+1        0.00965  -0.00016   0.02435   0.00449  -0.00382
  52        5D-1        0.00255   0.01598  -0.00269  -0.00443  -0.00851
  53        5D+2        0.01959   0.00588   0.00071   0.00593   0.00253
  54        5D-2       -0.00728   0.01036   0.00230   0.00420   0.01725
  55 4   H  1S         -0.11361  -0.11204   0.00381   0.02330   0.08934
  56        2S         -0.12640  -0.14849  -0.00923   0.03815   0.14032
  57        3S         -0.02363  -0.03220   0.00172   0.00805   0.05124
  58        4PX         0.00207  -0.01154   0.00257   0.00567   0.00409
  59        4PY        -0.01606  -0.00407   0.00143   0.00031   0.00479
  60        4PZ         0.00526   0.00739   0.01068  -0.00238  -0.00582
  61 5   H  1S         -0.09114   0.10622   0.00732  -0.05576  -0.07505
  62        2S         -0.11204   0.14420   0.00283  -0.09247  -0.11916
  63        3S         -0.02506   0.04006   0.00523  -0.03360  -0.06218
  64        4PX        -0.00071   0.01083   0.00219  -0.00139  -0.00478
  65        4PY         0.01748  -0.01163  -0.00097   0.00598   0.00522
  66        4PZ         0.00367  -0.00753   0.00647   0.00310   0.00397
                          11        12        13        14        15
                           O         O         V         V         V
     Eigenvalues --    -0.31846  -0.15047  -0.00089   0.02729   0.06424
   1 1   N  1S         -0.00520  -0.02086  -0.00126  -0.00330   0.00395
   2        2S         -0.00860  -0.03374  -0.00259  -0.00543   0.00611
   3        2PX        -0.01633  -0.02055  -0.00869  -0.02145  -0.01117
   4        2PY        -0.00604  -0.18070   0.05472   0.04723   0.06113
   5        2PZ        -0.07066  -0.00578  -0.16625   0.15474   0.03651
   6        3S          0.03022   0.08746   0.01912   0.01246  -0.00734
   7        3PX        -0.02562  -0.02332  -0.03717  -0.05444  -0.01158
   8        3PY        -0.00812  -0.27136   0.08279   0.07241   0.09850
   9        3PZ        -0.10541  -0.00846  -0.25216   0.23572   0.05473
  10        4S         -0.00862   0.27491  -0.11820   0.01513  -0.10460
  11        4PX         0.05044  -0.11891   0.23904   0.10588  -0.08362
  12        4PY        -0.01234  -0.36487   0.13319   0.11153   0.17622
  13        4PZ        -0.10910  -0.01196  -0.38596   0.39261   0.09867
  14        5D 0       -0.00310   0.00851   0.00281   0.00544  -0.00627
  15        5D+1       -0.04460   0.00011   0.02233  -0.01206  -0.00050
  16        5D-1       -0.00351   0.00219   0.00127  -0.00440   0.00382
  17        5D+2        0.00169  -0.01485  -0.00751  -0.01204   0.01340
  18        5D-2       -0.00402   0.03439  -0.00589  -0.00589   0.00834
  19 2   N  1S         -0.00080   0.00756   0.00340   0.00652  -0.00499
  20        2S         -0.00129   0.01312   0.00536   0.01072  -0.00829
  21        2PX         0.02203  -0.00418   0.01427   0.03488  -0.01208
  22        2PY        -0.01233   0.23093  -0.04895  -0.03463  -0.06157
  23        2PZ        -0.17004   0.00366   0.16403  -0.14529  -0.02984
  24        3S          0.00302  -0.05800  -0.02009  -0.04458   0.03523
  25        3PX         0.03205  -0.00462   0.01831   0.04770  -0.01715
  26        3PY        -0.01779   0.33297  -0.06957  -0.04855  -0.09007
  27        3PZ        -0.25334   0.00479   0.23071  -0.20557  -0.04115
  28        4S         -0.02292   0.07476  -0.16991  -0.11963   0.06446
  29        4PX         0.03792  -0.07199   0.08334   0.09926  -0.02567
  30        4PY        -0.01072   0.43909  -0.09462  -0.07616  -0.15420
  31        4PZ        -0.22196   0.00632   0.39886  -0.36338  -0.08296
  32        5D 0        0.00192   0.00131  -0.00058  -0.00136   0.00081
  33        5D+1        0.02332  -0.00003   0.00633  -0.00726  -0.00264
  34        5D-1        0.00434   0.00018   0.00181  -0.00255   0.00018
  35        5D+2       -0.00235  -0.00298   0.00275   0.00333  -0.00009
  36        5D-2        0.00061  -0.00396  -0.00276  -0.00287  -0.00465
  37 3   N  1S          0.02509   0.02727   0.04008   0.03056   0.00354
  38        2S          0.04046   0.04391   0.06365   0.04820   0.00580
  39        2PX         0.03634  -0.04040   0.06185   0.02183   0.01973
  40        2PY         0.01926  -0.00469  -0.01862   0.00992  -0.18271
  41        2PZ         0.22005  -0.01359   0.03079  -0.11947  -0.01801
  42        3S         -0.12711  -0.13445  -0.17132  -0.12615  -0.01445
  43        3PX         0.04982  -0.07528   0.07595   0.00831   0.04347
  44        3PY         0.02858  -0.00736  -0.02755   0.00416  -0.22233
  45        3PZ         0.32368  -0.02336   0.03247  -0.16596  -0.03323
  46        4S         -0.10110  -0.38634  -0.56869  -0.59018  -0.08015
  47        4PX         0.08619  -0.06622   0.32530   0.20209  -0.01921
  48        4PY         0.02446  -0.06121  -0.06778   0.06346  -0.68603
  49        4PZ         0.38055  -0.03948   0.07729  -0.34688  -0.04308
  50        5D 0        0.01123  -0.00419  -0.00387  -0.00592  -0.00376
  51        5D+1        0.00552  -0.00218  -0.02150   0.01747   0.00605
  52        5D-1       -0.00085   0.00420   0.00128  -0.00295   0.00056
  53        5D+2        0.00062  -0.00520   0.00064  -0.00019  -0.00353
  54        5D-2       -0.00131  -0.03165   0.00569   0.00802  -0.01122
  55 4   H  1S          0.03082  -0.03765   0.07325   0.02965  -0.02816
  56        2S          0.02042  -0.08651   0.10423  -0.02130   0.04501
  57        3S          0.01952  -0.01905   0.64701   0.95820  -1.24979
  58        4PX         0.00476   0.00136  -0.01114  -0.00880   0.01226
  59        4PY         0.00524  -0.00120  -0.00382  -0.01795   0.01018
  60        4PZ         0.01859   0.00103   0.00977  -0.00338  -0.01632
  61 5   H  1S          0.03710   0.08835   0.04741   0.00253   0.05260
  62        2S          0.04297   0.22374   0.12254  -0.02607   0.10199
  63        3S          0.03551   0.33307   0.47051   0.33756   1.28080
  64        4PX         0.00227  -0.00399  -0.00584  -0.00630  -0.00537
  65        4PY        -0.00269  -0.00441   0.00307   0.01021   0.01682
  66        4PZ         0.01273  -0.00217   0.00954  -0.00722   0.00575
                          16        17        18        19        20
                           V         V         V         V         V
     Eigenvalues --     0.21064   0.31420   0.34991   0.43196   0.48720
   1 1   N  1S         -0.07076  -0.01102  -0.01212   0.00285   0.04108
   2        2S         -0.11538  -0.02055  -0.01775   0.01029   0.07789
   3        2PX        -0.10090  -0.05041   0.01178   0.12807  -0.09211
   4        2PY         0.07439   0.08921  -0.00548   0.05157   0.03973
   5        2PZ        -0.01964   0.01753   0.03740  -0.01296  -0.00932
   6        3S          0.30712   0.13142  -0.01125  -0.20286  -0.53866
   7        3PX        -0.16726  -0.06034   0.07377   0.21858  -0.10582
   8        3PY         0.12564   0.15733  -0.00544   0.08714   0.11039
   9        3PZ        -0.02057   0.03424   0.05692  -0.05448  -0.01024
  10        4S          2.35022   0.08402   0.46735   0.98147  -2.06823
  11        4PX        -0.69995  -0.74031  -0.47044   4.16436  -2.10936
  12        4PY         0.36366   0.29209  -0.16545   0.39308  -0.42717
  13        4PZ        -0.14298  -0.02070   0.22904   0.20972  -0.01598
  14        5D 0        0.02670  -0.00947   0.00023   0.01984   0.00962
  15        5D+1       -0.00693   0.00808   0.00880  -0.00001  -0.01013
  16        5D-1        0.00101   0.00811  -0.01413   0.01051   0.00088
  17        5D+2       -0.04492   0.01191  -0.02306  -0.02689  -0.02000
  18        5D-2       -0.00997   0.02525  -0.00329   0.00943   0.01288
  19 2   N  1S          0.03549  -0.01542   0.01410   0.04637  -0.00748
  20        2S          0.05959  -0.02765   0.02475   0.07953  -0.00302
  21        2PX         0.14094  -0.02182   0.04839   0.05023   0.05828
  22        2PY        -0.01827  -0.00991   0.00084  -0.01402  -0.01124
  23        2PZ         0.01590  -0.00921  -0.00246  -0.00632   0.01274
  24        3S         -0.22805   0.14550  -0.10727  -0.28012  -0.23317
  25        3PX         0.20233  -0.05941   0.07334   0.10173   0.31731
  26        3PY        -0.01383   0.03006  -0.01745  -0.03889   0.04097
  27        3PZ         0.02075  -0.01575   0.02407  -0.03121   0.04184
  28        4S         -0.30681   0.43270   0.20365  -3.87679   3.11826
  29        4PX         0.45823  -0.14024   0.02753   2.16198  -2.34274
  30        4PY        -0.15773  -0.29958   0.06087   0.58626  -0.51966
  31        4PZ         0.07442  -0.01696  -0.15056   0.09436  -0.11701
  32        5D 0        0.00036   0.00322  -0.00169   0.00283   0.01709
  33        5D+1        0.00138  -0.00342  -0.00586   0.00488   0.00062
  34        5D-1        0.00051  -0.00155  -0.00370   0.00162  -0.00183
  35        5D+2        0.00779   0.00679   0.00045   0.00115  -0.01929
  36        5D-2       -0.00786  -0.01270   0.00133  -0.01110  -0.03218
  37 3   N  1S          0.04231   0.01586   0.03941  -0.01055   0.01214
  38        2S          0.06959   0.02431   0.06801  -0.01111   0.02473
  39        2PX        -0.21187   0.02347   0.01514  -0.09191  -0.10986
  40        2PY         0.00401  -0.10787   0.03865  -0.06141  -0.04392
  41        2PZ         0.01331  -0.02758  -0.07187  -0.01817   0.03610
  42        3S         -0.21165  -0.02324  -0.23384  -0.17261  -0.15722
  43        3PX        -0.28954   0.09483  -0.00654  -0.37649  -0.41260
  44        3PY         0.01232  -0.20893   0.09365  -0.10335  -0.10833
  45        3PZ         0.01779  -0.05678  -0.15854  -0.04703   0.11079
  46        4S         -1.17704  -0.74197  -1.10217   3.38591  -0.84980
  47        4PX        -1.39017  -0.49250   0.44556   2.29046   0.23154
  48        4PY         0.10035  -0.53897   0.60028  -1.04449   0.40079
  49        4PZ         0.02812  -0.05879  -0.56185   0.39252  -0.24815
  50        5D 0       -0.01046  -0.01796  -0.01746   0.00856   0.01264
  51        5D+1       -0.00844   0.00071   0.00077  -0.01044   0.00532
  52        5D-1        0.00226   0.01478  -0.00510   0.00340   0.01021
  53        5D+2        0.03224   0.00059  -0.01699  -0.02198  -0.01576
  54        5D-2        0.00544  -0.02095   0.00400   0.02429  -0.00085
  55 4   H  1S          0.00329  -0.03999   0.12731  -0.02850  -0.02454
  56        2S         -0.00522  -0.54592   1.91541  -0.91990   0.02517
  57        3S         -0.35670   0.55232  -0.82855   0.41129   0.19071
  58        4PX        -0.02774   0.00886   0.03602  -0.02788   0.03989
  59        4PY         0.01698  -0.02376  -0.00239  -0.02614   0.01903
  60        4PZ        -0.00629  -0.02562  -0.01957  -0.00016  -0.02136
  61 5   H  1S         -0.01297   0.14007   0.06062   0.00691   0.01534
  62        2S         -0.17306   1.47388   0.71436   0.34743   0.08743
  63        3S         -0.09212  -1.28309  -0.39513   0.00479  -0.18221
  64        4PX        -0.02315  -0.00915   0.02450   0.02723   0.00319
  65        4PY        -0.00707  -0.00927   0.01825  -0.00462  -0.00361
  66        4PZ         0.00075   0.00718  -0.02838   0.02474   0.00367
                          21        22        23        24        25
                           V         V         V         V         V
     Eigenvalues --     0.51707   0.57242   0.60844   0.66119   0.70068
   1 1   N  1S         -0.00345  -0.01077  -0.00376   0.02130  -0.01640
   2        2S         -0.00717  -0.02024  -0.00807   0.04088  -0.03033
   3        2PX        -0.03925  -0.01922  -0.03131   0.00307   0.02636
   4        2PY        -0.02130  -0.11783  -0.00171  -0.03469  -0.14876
   5        2PZ        -0.10386   0.02100   0.07293  -0.02487   0.07582
   6        3S          0.05655   0.13042   0.06535  -0.24324   0.14687
   7        3PX        -0.07521  -0.04820  -0.10016  -0.17616   0.09414
   8        3PY        -0.06694  -0.48827   0.01191  -0.10386  -0.53037
   9        3PZ        -0.41540   0.08404   0.28036  -0.08795   0.25481
  10        4S         -0.59797  -0.21805  -0.55711   0.67195  -0.12280
  11        4PX        -0.22347   0.33968   0.98652   0.04369   0.81042
  12        4PY         0.00916   0.67624   0.07313  -0.15064   1.51616
  13        4PZ         0.36450  -0.13985  -0.57754   0.20266  -0.57268
  14        5D 0        0.00662   0.01221   0.01208  -0.00372   0.01686
  15        5D+1        0.00922   0.00787   0.06431   0.00982  -0.01164
  16        5D-1       -0.01062   0.00415   0.01461  -0.01715   0.01598
  17        5D+2       -0.00057   0.01690  -0.00877   0.00860  -0.00770
  18        5D-2       -0.00162  -0.01844  -0.00373   0.02506   0.02140
  19 2   N  1S         -0.01011  -0.00350  -0.00755   0.03967  -0.01366
  20        2S         -0.01710  -0.00649  -0.01387   0.07624  -0.02709
  21        2PX         0.01094   0.03195  -0.00199  -0.08307   0.03668
  22        2PY        -0.00498  -0.16109   0.03167   0.07718   0.14455
  23        2PZ        -0.09890   0.02710   0.14671   0.03711  -0.06977
  24        3S          0.04722   0.01997   0.06388  -0.52038   0.19885
  25        3PX         0.06872   0.12495   0.02964  -0.29066   0.12684
  26        3PY        -0.01199  -0.56691   0.11640   0.23644   0.50170
  27        3PZ        -0.36662   0.09672   0.51709   0.12956  -0.24187
  28        4S          0.47637  -0.22138  -0.55146   0.36413  -1.03386
  29        4PX        -0.49150  -0.15867   0.05451   0.31130   0.32414
  30        4PY        -0.07322   0.68352  -0.11832  -0.30412  -1.10249
  31        4PZ         0.40661  -0.09876  -0.60275  -0.25812   0.56210
  32        5D 0        0.00252  -0.00091  -0.00029  -0.00435   0.00313
  33        5D+1        0.02989  -0.00742  -0.03414  -0.00175   0.00084
  34        5D-1        0.00860  -0.00039  -0.00201  -0.00397   0.00197
  35        5D+2       -0.00373  -0.01351   0.00071  -0.00547   0.00645
  36        5D-2        0.00144   0.04255  -0.00620  -0.00353  -0.00555
  37 3   N  1S         -0.00539   0.00759  -0.01070  -0.01277   0.00615
  38        2S         -0.00957   0.01424  -0.01826  -0.02378   0.01231
  39        2PX        -0.02161  -0.01264  -0.02501   0.03843  -0.00378
  40        2PY         0.00293  -0.08016   0.03749  -0.18645  -0.00156
  41        2PZ        -0.16932  -0.00510  -0.14618  -0.00768   0.00864
  42        3S          0.02229  -0.10252   0.02640   0.18720  -0.13685
  43        3PX        -0.04947  -0.00702  -0.07585   0.10425  -0.03339
  44        3PY        -0.02106  -0.26374   0.10115  -0.59946  -0.01632
  45        3PZ        -0.58811  -0.00895  -0.50418  -0.06568   0.06002
  46        4S          0.26139   0.39068   1.16683  -0.53632   0.75032
  47        4PX        -0.09279   0.05545   0.42268  -0.33013   0.44033
  48        4PY         0.05766   0.17534  -0.50786   1.81093  -0.80354
  49        4PZ         0.81645   0.11157   1.15222  -0.07825   0.15694
  50        5D 0       -0.01913  -0.01009  -0.00742   0.00881   0.00623
  51        5D+1       -0.03520  -0.00171  -0.03110  -0.00117  -0.00167
  52        5D-1       -0.00136   0.00977  -0.00275   0.00378   0.00636
  53        5D+2        0.00877   0.00202   0.01515  -0.01191  -0.00937
  54        5D-2       -0.00289  -0.02400   0.01423  -0.05209   0.02309
  55 4   H  1S          0.01453  -0.02012   0.01157  -0.02267   0.02695
  56        2S         -0.09194  -0.24234  -0.42703   0.45963  -0.37674
  57        3S         -0.18251   0.51002  -0.13944   0.61192   0.18349
  58        4PX        -0.03861  -0.03414  -0.09416   0.08296  -0.12111
  59        4PY        -0.02506   0.01355  -0.01752   0.10509  -0.01439
  60        4PZ         0.01287  -0.02121   0.03378  -0.02442  -0.01494
  61 5   H  1S          0.00248   0.02924  -0.01387   0.02365  -0.01424
  62        2S         -0.16385   0.14171  -0.18384  -0.37484   0.26480
  63        3S         -0.07014  -0.54948   0.23464  -0.63437  -0.03782
  64        4PX        -0.01849   0.00189  -0.02698  -0.05478   0.08882
  65        4PY         0.02072   0.02615  -0.01590   0.08715  -0.00103
  66        4PZ         0.01190   0.02902   0.04352   0.00156   0.05137
                          26        27        28        29        30
                           V         V         V         V         V
     Eigenvalues --     0.70338   0.74075   0.77860   0.87399   0.97562
   1 1   N  1S          0.04406  -0.02752   0.04138  -0.02135  -0.00671
   2        2S          0.08546  -0.05554   0.08192  -0.04118  -0.01723
   3        2PX        -0.09032   0.02638   0.18497   0.13362  -0.23522
   4        2PY        -0.00527   0.08331   0.02106   0.02634   0.02085
   5        2PZ         0.10081   0.13891   0.02588  -0.02286  -0.02740
   6        3S         -0.55747   0.42627  -0.66033   0.23393   0.24789
   7        3PX        -0.43690   0.05053   0.54536  -0.14104  -0.49031
   8        3PY        -0.00639   0.31173   0.10008   0.10004   0.12713
   9        3PZ         0.33008   0.48445   0.09386  -0.12581  -0.08673
  10        4S          0.45698  -0.67816   1.68728   0.44647  -0.71344
  11        4PX         1.79911   0.16749  -1.19113   5.13718   6.67329
  12        4PY         0.14896  -1.11740  -0.12101   0.08154  -0.35411
  13        4PZ        -0.80924  -1.22558  -0.43566   0.62887   0.47396
  14        5D 0        0.00245  -0.01218   0.01055   0.00441   0.00890
  15        5D+1       -0.00418  -0.01567   0.00081   0.02691   0.00296
  16        5D-1        0.01212  -0.01070   0.00853   0.00534   0.01878
  17        5D+2        0.00148  -0.00106   0.01087  -0.01277   0.00046
  18        5D-2       -0.03504   0.00018  -0.01966  -0.11320   0.00110
  19 2   N  1S          0.05171  -0.02461   0.01095   0.02232  -0.05072
  20        2S          0.10218  -0.04969   0.02142   0.03782  -0.09947
  21        2PX        -0.12024   0.07545   0.09591   0.18962  -0.11199
  22        2PY        -0.04987  -0.01085   0.01340   0.05666  -0.00011
  23        2PZ        -0.09051  -0.09408  -0.00118   0.01365  -0.00106
  24        3S         -0.78115   0.38801  -0.07445  -0.17418   0.70800
  25        3PX        -0.27421   0.17754   0.33315   0.58442  -0.08844
  26        3PY        -0.14954  -0.07938   0.03304   0.10171   0.00226
  27        3PZ        -0.30941  -0.33340  -0.01733   0.06189   0.01033
  28        4S         -0.41224  -0.26101   0.21057  -4.03173  -5.49425
  29        4PX         0.38701  -0.19122  -0.20637   0.93798   2.01472
  30        4PY         0.31395   0.51586   0.01703   0.61343   0.91518
  31        4PZ         0.72605   0.90340   0.17260  -0.22093  -0.04787
  32        5D 0        0.01889  -0.02234   0.01029  -0.02171   0.02244
  33        5D+1       -0.00307   0.00467   0.00335  -0.01265  -0.00861
  34        5D-1        0.00358   0.00150   0.00529  -0.00286  -0.00082
  35        5D+2       -0.03551   0.02139  -0.01360   0.01086  -0.06928
  36        5D-2       -0.00691   0.01717   0.00450   0.06643   0.01519
  37 3   N  1S          0.00136  -0.02182   0.04537  -0.04400   0.07491
  38        2S          0.00310  -0.04141   0.09285  -0.08445   0.14922
  39        2PX         0.05179  -0.04207   0.19967   0.10573  -0.06624
  40        2PY         0.06167  -0.09053  -0.04168  -0.02917  -0.01659
  41        2PZ        -0.02337  -0.02587  -0.04401   0.03697  -0.00507
  42        3S         -0.03455   0.27108  -0.84483   0.54907  -1.33191
  43        3PX         0.10867  -0.07729   0.42113   0.38478  -0.06945
  44        3PY         0.20193  -0.29733  -0.14635   0.01028  -0.15252
  45        3PZ        -0.05281  -0.13681  -0.08161   0.12986   0.15336
  46        4S          1.24919  -0.12582   0.93859   2.71607   7.32079
  47        4PX         0.16430   0.42832  -1.67434   1.32265   2.54856
  48        4PY        -0.83261   1.36360   0.29734  -0.78086  -0.43324
  49        4PZ         0.46417   0.47006   0.63375  -0.18579   0.32147
  50        5D 0       -0.00298  -0.00372   0.05417  -0.02385  -0.01088
  51        5D+1       -0.01560   0.00155  -0.03482  -0.00878  -0.03185
  52        5D-1        0.00614  -0.00555  -0.00265   0.04062   0.00957
  53        5D+2       -0.01279   0.02950  -0.08105   0.01549   0.05739
  54        5D-2        0.03107  -0.03544   0.04540   0.08662   0.04731
  55 4   H  1S          0.03178  -0.01313   0.02123   0.06056   0.06776
  56        2S         -0.26673   0.34914  -0.61850  -0.16999  -0.75456
  57        3S         -0.30915   0.46179  -0.57586   0.15494  -0.06883
  58        4PX        -0.10730   0.04117  -0.02028  -0.13975  -0.25891
  59        4PY        -0.04639   0.11133  -0.12463   0.02523  -0.07762
  60        4PZ         0.00157  -0.00332   0.13127  -0.13515   0.11248
  61 5   H  1S          0.01669   0.00191   0.01855   0.00385   0.02618
  62        2S          0.15776  -0.47951  -0.52582   0.37208  -0.46414
  63        3S          0.08977  -0.05487  -0.49257   0.12440  -0.06109
  64        4PX        -0.01929  -0.09644  -0.04522   0.02378   0.01573
  65        4PY        -0.02678   0.02163   0.11324  -0.00021   0.13588
  66        4PZ         0.03200  -0.01193   0.10907   0.05040   0.18254
                          31        32        33        34        35
                           V         V         V         V         V
     Eigenvalues --     1.14547   1.26647   1.37929   1.50042   1.57544
   1 1   N  1S          0.07914  -0.02112  -0.00934  -0.00289  -0.00250
   2        2S          0.15489  -0.04116  -0.01822  -0.00604  -0.00422
   3        2PX        -0.09585   0.01231   0.06710  -0.02306  -0.00701
   4        2PY        -0.04159   0.02875   0.02356  -0.00872   0.05769
   5        2PZ        -0.00185  -0.00220   0.00636   0.00391   0.01022
   6        3S         -1.36633   0.38796   0.21956   0.06217  -0.00288
   7        3PX         0.00752   0.05324   0.29856  -0.06017  -0.11340
   8        3PY        -0.01704   0.08405   0.09159  -0.01160   0.02745
   9        3PZ        -0.00109   0.07850  -0.05172   0.00312  -0.00581
  10        4S          6.85215  -1.97947  -2.35450   0.09254   0.90541
  11        4PX         1.02745  -2.13950  -6.23714   0.69494   2.84128
  12        4PY         0.69981  -0.67882  -0.95714  -0.18009   0.15690
  13        4PZ         0.00100  -0.58932   0.08311   0.04506  -0.01482
  14        5D 0       -0.12665  -0.06747  -0.01424  -0.08312   0.02438
  15        5D+1        0.02281  -0.18816   0.24048   0.04974   0.22845
  16        5D-1        0.01197   0.07369  -0.01028  -0.08623   0.16390
  17        5D+2        0.16453  -0.09340  -0.09024  -0.03010   0.00713
  18        5D-2        0.03294  -0.04494  -0.01452  -0.01509   0.26814
  19 2   N  1S         -0.06879   0.01677   0.02020  -0.00631  -0.00039
  20        2S         -0.13314   0.03349   0.04212  -0.01257  -0.00056
  21        2PX        -0.11887   0.00480  -0.01443  -0.00993   0.04291
  22        2PY        -0.03337   0.00493  -0.01973   0.02022  -0.02741
  23        2PZ        -0.00237   0.03618  -0.03796  -0.00910  -0.03722
  24        3S          1.13102  -0.31939  -0.42473   0.11083   0.06174
  25        3PX         0.04364  -0.10220  -0.20177  -0.00653   0.17576
  26        3PY        -0.00720  -0.02657  -0.06640   0.02770  -0.02528
  27        3PZ         0.00303   0.04255  -0.06196  -0.01239  -0.05626
  28        4S         -4.78207   2.91640   6.31402  -0.68869  -2.67853
  29        4PX         2.29515  -1.21770  -2.42412   0.28073   0.96687
  30        4PY         0.34958  -0.13503  -0.52394   0.09142   0.32504
  31        4PZ         0.07043   0.15403  -0.18663   0.01227   0.07193
  32        5D 0        0.08041  -0.03798  -0.04661  -0.04890   0.00855
  33        5D+1       -0.00941   0.10645  -0.12771  -0.01421  -0.16889
  34        5D-1        0.00000   0.05395  -0.05011  -0.04243   0.02396
  35        5D+2       -0.11430   0.00466   0.04300  -0.03609   0.06867
  36        5D-2       -0.06235   0.02995  -0.01723   0.03046  -0.11579
  37 3   N  1S         -0.02646   0.01773  -0.00391   0.01061   0.01541
  38        2S         -0.05377   0.03636  -0.00952   0.02009   0.02924
  39        2PX         0.02013  -0.02720  -0.00333  -0.00466   0.05219
  40        2PY        -0.01714  -0.01934  -0.02001  -0.01323  -0.04339
  41        2PZ         0.01536  -0.02853   0.03644   0.00439   0.01401
  42        3S          0.62721  -0.34424   0.19887  -0.12645  -0.20952
  43        3PX        -0.02006   0.04160  -0.04915  -0.01907   0.19134
  44        3PY         0.02894  -0.08798  -0.05617  -0.16742  -0.20920
  45        3PZ        -0.05016  -0.09435   0.03658   0.03251  -0.02573
  46        4S         -2.61115  -0.06937  -4.31312   0.47470   2.03526
  47        4PX        -1.03397  -0.80418  -1.31282   0.29359   0.40240
  48        4PY         0.05801   0.70311   1.23945   0.85140  -0.33762
  49        4PZ        -0.12139   0.69735  -0.61919  -0.07064   0.35728
  50        5D 0       -0.04494  -0.15411   0.00115  -0.05841  -0.12577
  51        5D+1        0.00947   0.24093  -0.21548  -0.05846  -0.13309
  52        5D-1        0.05002   0.06705   0.17602   0.04114   0.08953
  53        5D+2       -0.03997  -0.10168   0.05632  -0.01108  -0.16285
  54        5D-2        0.07481   0.09937   0.09513  -0.07229  -0.25573
  55 4   H  1S         -0.01164  -0.02494  -0.01449  -0.04008  -0.06011
  56        2S          0.44181  -0.26780   0.77615   0.46415  -0.24540
  57        3S         -0.05238  -0.04356  -0.03046  -0.00629  -0.16051
  58        4PX        -0.09752   0.00005  -0.38290   0.34319  -0.04037
  59        4PY         0.04679  -0.30937   0.25687  -0.49598  -0.08754
  60        4PZ        -0.29853  -0.51791  -0.22029  -0.32878   0.12099
  61 5   H  1S         -0.05064  -0.00854  -0.03228   0.11588   0.36714
  62        2S          0.34929  -0.65805  -0.00487  -0.57106  -0.69000
  63        3S         -0.05441  -0.03607  -0.08485   0.13253   0.46198
  64        4PX         0.10775   0.40052   0.26231  -0.35354   0.41867
  65        4PY        -0.01223   0.21397  -0.11245  -0.56747  -0.28118
  66        4PZ        -0.03926  -0.10372   0.47838   0.40833  -0.39093
                          36        37        38        39        40
                           V         V         V         V         V
     Eigenvalues --     1.63903   1.68704   1.72572   1.74892   1.87529
   1 1   N  1S          0.00301   0.00424   0.00143   0.00366  -0.00941
   2        2S          0.00704   0.00759   0.00279   0.00626  -0.02027
   3        2PX        -0.00202   0.06350  -0.01598   0.05893   0.01527
   4        2PY         0.02957   0.03096  -0.04041   0.00197  -0.03593
   5        2PZ         0.00273  -0.03331  -0.02497   0.00289   0.02467
   6        3S         -0.16560  -0.00054  -0.06977   0.01202   0.21503
   7        3PX        -0.11264   0.13892  -0.06314   0.05482  -0.06860
   8        3PY         0.01624   0.04966  -0.04537  -0.02220  -0.01021
   9        3PZ         0.00511  -0.03462  -0.03168   0.00199  -0.00367
  10        4S          2.34645  -1.31072   1.03421  -1.11259  -1.14331
  11        4PX        -0.17369  -0.97363   0.02122   1.67380   1.51401
  12        4PY         0.04920  -0.40248   0.19161  -0.04255  -0.25503
  13        4PZ         0.16873   0.19793   0.05267   0.25229   0.28207
  14        5D 0        0.03353   0.19313  -0.42486  -0.37400   0.05123
  15        5D+1       -0.22526  -0.17707   0.03430  -0.15348  -0.22686
  16        5D-1       -0.13319   0.41536   0.45470  -0.26429   0.07536
  17        5D+2        0.08400   0.17042  -0.25221  -0.21876  -0.04400
  18        5D-2        0.23749  -0.01906  -0.03691   0.11912   0.30319
  19 2   N  1S         -0.00169   0.00655  -0.00421   0.00496   0.00176
  20        2S         -0.00284   0.01432  -0.00882   0.01043   0.00388
  21        2PX         0.02554  -0.00532   0.00248   0.02183   0.01819
  22        2PY        -0.04320   0.01753  -0.01883  -0.01390  -0.05017
  23        2PZ         0.03456   0.01721  -0.02105   0.04133   0.04320
  24        3S          0.07320  -0.13506   0.08630  -0.07742  -0.03617
  25        3PX         0.09614  -0.00829   0.00617   0.08685   0.04242
  26        3PY        -0.04945   0.02754  -0.02423  -0.01207  -0.06469
  27        3PZ         0.05669   0.02596  -0.02647   0.05768   0.05844
  28        4S         -0.82497   1.36462  -0.49242  -0.87891  -0.70753
  29        4PX         0.37197  -0.57072   0.24052   0.24097   0.16625
  30        4PY         0.12632  -0.09417   0.01960   0.13441   0.26150
  31        4PZ        -0.04553  -0.11053   0.00670  -0.09402  -0.13577
  32        5D 0        0.07781   0.10796  -0.32491  -0.33517   0.11697
  33        5D+1        0.18087  -0.01272  -0.17113   0.24258   0.17328
  34        5D-1       -0.04075   0.30487   0.33135  -0.19777   0.30664
  35        5D+2        0.09050   0.06399  -0.13816  -0.11203   0.19520
  36        5D-2       -0.14256   0.09473  -0.18286  -0.18523  -0.27740
  37 3   N  1S         -0.03766  -0.01207  -0.01542   0.00579   0.01256
  38        2S         -0.07907  -0.02397  -0.03256   0.01609   0.02299
  39        2PX        -0.01640   0.01139  -0.02247   0.05713   0.10188
  40        2PY        -0.00289  -0.05170   0.01811  -0.04259   0.09928
  41        2PZ        -0.04449   0.01806  -0.01423   0.01334  -0.06241
  42        3S          0.76236   0.12566   0.29697  -0.26982  -0.19903
  43        3PX         0.03785  -0.16789  -0.03087   0.02459   0.12209
  44        3PY        -0.04603  -0.19667   0.00846  -0.01682   0.04214
  45        3PZ         0.05113   0.09718   0.03168   0.00845  -0.00496
  46        4S         -2.16679  -0.43961  -0.65791   1.87198   1.74545
  47        4PX        -0.96956   0.71611  -0.44903   1.43612   0.98882
  48        4PY         0.44969   0.52281   0.01478  -0.35952  -0.04368
  49        4PZ        -0.69350  -0.28662  -0.23616   0.00039   0.01746
  50        5D 0        0.19260   0.14444  -0.00031  -0.01264  -0.02919
  51        5D+1        0.18780   0.11946   0.07997   0.04389  -0.11849
  52        5D-1        0.04778   0.18098   0.03076   0.08346  -0.26615
  53        5D+2       -0.02416   0.13107  -0.03760   0.04260  -0.14504
  54        5D-2       -0.15630  -0.12368   0.07035  -0.13097  -0.01034
  55 4   H  1S         -0.25695  -0.34508   0.07168  -0.35562   0.64620
  56        2S          1.03039   0.92261  -0.01943   0.46910  -0.88819
  57        3S         -0.25477  -0.21205   0.06555  -0.22253   0.48849
  58        4PX         0.12146  -0.51731   0.20937  -0.46864  -0.19368
  59        4PY        -0.09949  -0.17010  -0.03281   0.17698   0.25773
  60        4PZ         0.30680  -0.02859   0.27468  -0.02205  -0.28413
  61 5   H  1S          0.04641  -0.00507  -0.11118   0.09642   0.09716
  62        2S          0.10412   0.04222   0.22186  -0.00231  -0.16844
  63        3S          0.01405   0.06506  -0.17224   0.21092   0.01312
  64        4PX         0.44542  -0.32076   0.01017  -0.26279  -0.22909
  65        4PY         0.01948  -0.17650   0.10924  -0.15018  -0.16314
  66        4PZ         0.58293  -0.07475   0.21066  -0.23275   0.12729
                          41        42        43        44        45
                           V         V         V         V         V
     Eigenvalues --     1.94792   2.09448   2.12119   2.25871   2.35897
   1 1   N  1S         -0.00340   0.00374   0.00158   0.01326   0.00171
   2        2S         -0.00759   0.00900   0.00283   0.03262   0.00545
   3        2PX         0.02467  -0.00153  -0.00889   0.06826  -0.03505
   4        2PY        -0.03153   0.04715  -0.04585   0.12522   0.04127
   5        2PZ        -0.05470   0.03541   0.00521  -0.07620   0.16637
   6        3S          0.12713  -0.07392   0.01603  -0.29986  -0.05634
   7        3PX        -0.08222   0.00430  -0.00351   0.05133  -0.01640
   8        3PY        -0.02813  -0.01919  -0.03512  -0.04341  -0.02712
   9        3PZ        -0.01431   0.02565   0.00490  -0.00616  -0.00286
  10        4S         -0.62232   0.40811  -0.15436  -0.02757   0.70332
  11        4PX         2.83749   0.87012   0.77837   0.43483   0.75768
  12        4PY        -0.23688   0.15598   0.02503   0.31429   0.20061
  13        4PZ        -0.22056   0.01745   0.13074   0.01296   0.50675
  14        5D 0        0.04670   0.06545  -0.41038  -0.29093  -0.00788
  15        5D+1        0.21365   0.07172   0.00203  -0.07701   0.01211
  16        5D-1        0.04115  -0.44454  -0.10915   0.18029   0.43606
  17        5D+2       -0.08693   0.06500  -0.31751   0.19701  -0.00041
  18        5D-2        0.33965   0.06060  -0.06196   0.11772   0.07002
  19 2   N  1S          0.00328   0.00205  -0.00227   0.01255   0.00153
  20        2S          0.00623   0.00441  -0.00578   0.03139   0.00326
  21        2PX         0.04407   0.01649   0.00731  -0.01285   0.02185
  22        2PY        -0.04389   0.01223   0.00558   0.01723  -0.00200
  23        2PZ        -0.04353  -0.00482   0.00226  -0.00252   0.00256
  24        3S         -0.03741  -0.01929   0.04666  -0.25814  -0.00934
  25        3PX         0.09819   0.06182  -0.02809   0.24269   0.05129
  26        3PY        -0.06030   0.01812  -0.01885   0.07181   0.00657
  27        3PZ        -0.05565   0.00682   0.00558   0.00409   0.02538
  28        4S         -1.89020  -0.83866  -0.57990  -0.20141  -0.87058
  29        4PX         0.58408   0.30931   0.22423  -0.04052   0.34815
  30        4PY         0.43496   0.03860   0.08488  -0.18792   0.04154
  31        4PZ         0.19160   0.01339  -0.03157   0.04427  -0.27333
  32        5D 0        0.06907  -0.15392   0.66163  -0.01657   0.01276
  33        5D+1       -0.27693  -0.07724  -0.01044  -0.17168   0.59365
  34        5D-1       -0.22727   0.70075   0.15423  -0.17014  -0.12951
  35        5D+2        0.20299  -0.10216   0.37693   0.08427  -0.05536
  36        5D-2       -0.27393   0.05171   0.05639   0.41292   0.11532
  37 3   N  1S         -0.00584   0.00962   0.00485   0.01732   0.00887
  38        2S         -0.00322   0.02785   0.01387   0.04016   0.02549
  39        2PX        -0.01383  -0.02789  -0.01199   0.04549  -0.03720
  40        2PY         0.10565  -0.00137  -0.06846   0.06368   0.08182
  41        2PZ         0.11038   0.07448   0.01423  -0.03603   0.04841
  42        3S         -0.27577  -0.29797  -0.16286  -0.34309  -0.20407
  43        3PX         0.11037   0.16142   0.09882  -0.08064   0.24381
  44        3PY         0.04169   0.26824   0.08036   0.30255   0.07875
  45        3PZ         0.00045  -0.12585  -0.05950  -0.07205  -0.12729
[...]
     2   7     0.11  -0.33   0.02     0.02  -0.02  -0.18     0.04  -0.01  -0.02
     3   7    -0.00  -0.23   0.01     0.02   0.02  -0.08    -0.12   0.01  -0.16
     4   1     0.21  -0.30   0.14    -0.22  -0.26  -0.83     0.34   0.13   0.58
     5   1    -0.54  -0.15  -0.04    -0.13  -0.18   0.05     0.09  -0.13   0.67
                     4                      5                      6
                     A                      A                      A
 Frequencies --  1080.9627              1304.2384              1590.6334
 Red. masses --     3.3572                 1.2945                 1.0673
 Frc consts  --     2.3113                 1.2974                 1.5910
 IR Inten    --    72.3945                88.9877                70.2475
  Atom  AN      X      Y      Z        X      Y      Z        X      Y      Z
     1   7     0.12  -0.05  -0.04    -0.01   0.04  -0.01     0.02  -0.02  -0.01
     2   7     0.23   0.00   0.02     0.08   0.02   0.01     0.01   0.01  -0.00
     3   7    -0.31   0.09   0.07    -0.08  -0.08   0.00     0.05  -0.02  -0.01
     4   1    -0.04  -0.21  -0.19    -0.64   0.19  -0.11    -0.58   0.43   0.11
     5   1    -0.64  -0.25  -0.51     0.71   0.05   0.08    -0.62   0.00   0.26
                     7                      8                      9
                     A                      A                      A
 Frequencies --  1891.0544              2154.5783              3528.5787
 Red. masses --     1.1102                 8.0665                 1.0748
 Frc consts  --     2.3391                22.0628                 7.8848
 IR Inten    --   579.3327                62.5559                47.4140
  Atom  AN      X      Y      Z        X      Y      Z        X      Y      Z
     1   7    -0.05   0.01  -0.01     0.56   0.13   0.01     0.00  -0.00  -0.00
     2   7     0.01  -0.00   0.00    -0.43  -0.11  -0.01    -0.00   0.00  -0.00
     3   7     0.04   0.05   0.01    -0.12   0.00   0.03     0.03   0.06  -0.03
     4   1    -0.05   0.19   0.14    -0.36   0.13  -0.11    -0.47  -0.77   0.44
     5   1     0.13  -0.94  -0.17     0.24  -0.46  -0.19    -0.00  -0.00  -0.01

 -------------------
 - Thermochemistry -
 -------------------
 Temperature   298.150 Kelvin.  Pressure   1.00000 Atm.
 Atom     1 has atomic number  7 and mass  14.00307
 Atom     2 has atomic number  7 and mass  14.00307
 Atom     3 has atomic number  7 and mass  14.00307
 Atom     4 has atomic number  1 and mass   1.00783
 Atom     5 has atomic number  1 and mass   1.00783
 Molecular mass:    44.02487 amu.
 Principal axes and moments of inertia in atomic units:
                           1         2         3
     Eigenvalues --     8.13765 164.53155 170.41932
           X            0.99972  -0.00953  -0.02178
           Y            0.00958   0.99995   0.00231
           Z            0.02176  -0.00252   0.99976
 This molecule is an asymmetric top.
 Rotational symmetry number  1.
 Rotational temperatures (Kelvin)     10.64359     0.52643     0.50824
 Rotational constants (GHZ):         221.77670    10.96897    10.59000
    1 imaginary frequencies ignored.
 Zero-point vibrational energy      76886.9 (Joules/Mol)
                                   18.37641 (Kcal/Mol)
 Warning -- explicit consideration of   1 degrees of freedom as
           vibrations may cause significant error
 Vibrational temperatures:    598.85  1277.95  1555.26  1876.51  2288.56
          (Kelvin)           2720.80  3099.95  5076.83
 
 Zero-point correction=                           0.029285 (Hartree/Particle)
 Thermal correction to Energy=                    0.032510
 Thermal correction to Enthalpy=                  0.033454
 Thermal correction to Gibbs Free Energy=         0.005009
 Sum of electronic and zero-point Energies=           -165.231575
 Sum of electronic and thermal Energies=              -165.228349
 Sum of electronic and thermal Enthalpies=            -165.227405
 Sum of electronic and thermal Free Energies=         -165.255850
 
                     E (Thermal)             CV                S
                      KCal/Mol        Cal/Mol-Kelvin    Cal/Mol-Kelvin
 Total                   20.400              8.435             59.868
 Electronic               0.000              0.000              1.377
 Translational            0.889              2.981             37.273
 Rotational               0.889              2.981             20.062
 Vibrational             18.623              2.473              1.156
 Vibration     1          0.779              1.435              0.905
                       Q            Log10(Q)             Ln(Q)
 Total Bot       0.496642D-02         -2.303957         -5.305056
 Total V=0       0.146565D+12         11.166031         25.710737
 Vib (Bot)       0.399973D-13        -13.397969        -30.849963
 Vib (Bot)    1  0.423084D+00         -0.373574         -0.860185
 Vib (V=0)       0.118037D+01          0.072019          0.165830
 Vib (V=0)    1  0.115498D+01          0.062575          0.144084
 Electronic      0.200000D+01          0.301030          0.693147
 Translational   0.114816D+08          7.060002         16.256256
 Rotational      0.540729D+04          3.732980          8.595504
 
                                                  reverse IRC, from TS reverse1 f
 req
                                                             IR Spectrum
 
      3                                                2        1          1          1       1                                      
      5                                                1        8          5          3       0      8                4              
      2                                                5        9          9          0       8      8                1              
      9                                                5        1          1          4       1      8                6              
 
      X                                                X        X          X          X       X      X                X              
      X                                                X        X          X          X       X      X                               
                                                                X                     X              X                               
                                                                X                                    X                               
                                                                X                                    X                               
                                                                X                                    X                               
                                                                X                                                                    
                                                                X                                                                    
                                                                X                                                                    
                                                                X                                                                    
                                                                X                                                                    
                                                                X                                                                    
                                                                X                                                                    
                                                                X                                                                    
                                                                X                                                                    
                                                                X                                                                    
                                                                X                                                                    
                                                                X                                                                    
                                                                X                                                                    
                                                                X                                                                    
 
 ***** Axes restored to original set *****
 -------------------------------------------------------------------
 Center     Atomic                   Forces (Hartrees/Bohr)
 Number     Number              X              Y              Z
 -------------------------------------------------------------------
      1        7          -0.049243375   -0.036453008   -0.007841019
      2        7           0.022967602    0.019387591    0.031510264
      3        7           0.044857443    0.056606050   -0.037684840
      4        1           0.003772576   -0.003096713   -0.002407617
      5        1          -0.022354247   -0.036443920    0.016423213
 -------------------------------------------------------------------
 Cartesian Forces:  Max     0.056606050 RMS     0.031064764
 Z-matrix is all fixed cartesians, so copy forces.
 Force constants in Cartesian coordinates: 
                1             2             3             4             5 
      1  0.113402D-02
      2 -0.802116D-02  0.178092D-01
      3 -0.111054D+00  0.813956D-01  0.149657D+01
      4  0.260791D-01  0.173439D-01  0.277844D-01 -0.926349D-02
      5  0.214869D-01 -0.848433D-03 -0.107441D+00 -0.100295D-01 -0.150606D-02
      6  0.393043D-01 -0.104449D+00 -0.102086D+01 -0.683603D-01  0.898240D-01
      7 -0.227900D-01  0.766607D-02  0.479852D-01 -0.190637D-01 -0.207533D-01
      8  0.183350D-02 -0.791208D-02  0.486145D-01 -0.158562D-01 -0.720534D-02
      9  0.470557D-01 -0.174621D-01 -0.407673D+00  0.489777D-01  0.242176D-01
     10  0.123797D-01  0.473512D-02  0.277193D-01  0.260352D-03 -0.773649D-03
     11  0.130211D-01 -0.141207D-01 -0.747336D-02 -0.441374D-02  0.895042D-02
     12 -0.661169D-02  0.857325D-02 -0.747783D-01 -0.461287D-02 -0.292916D-02
     13 -0.168028D-01 -0.217240D-01  0.756464D-02  0.198775D-02  0.100696D-01
     14 -0.283204D-01  0.507208D-02 -0.150960D-01  0.129555D-01  0.609409D-03
     15  0.313053D-01  0.319418D-01  0.674834D-02 -0.378892D-02 -0.367166D-02
                6             7             8             9            10 
      6  0.106662D+01
      7 -0.274893D-02  0.367493D+00
      8 -0.335626D-01  0.717097D-01  0.116717D+00
      9 -0.369491D-01  0.153476D+00  0.171759D-03  0.683000D+00
     10  0.507571D-02 -0.276972D+00 -0.438969D-01 -0.210735D+00  0.275849D+00
     11  0.559420D-02 -0.248213D-01 -0.181099D-01  0.148857D-01  0.371979D-01
     12  0.100264D-01 -0.179352D+00 -0.846585D-02 -0.174675D+00  0.186628D+00
     13  0.267292D-01 -0.486670D-01 -0.137902D-01 -0.387742D-01 -0.115171D-01
     14  0.425929D-01 -0.338012D-01 -0.834894D-01 -0.218129D-01  0.273747D-02
     15 -0.188312D-01 -0.193601D-01 -0.675782D-02 -0.637020D-01 -0.868806D-02
               11            12            13            14            15 
     11  0.289255D-01
     12  0.370597D-02  0.231769D+00
     13 -0.209840D-01  0.394856D-02  0.749992D-01
     14 -0.564533D-02 -0.884207D-03  0.464285D-01  0.834532D-01
     15 -0.167126D-01  0.765805D-02  0.531741D-03 -0.479979D-02  0.681268D-01
 Leave Link  716 at Fri Apr 25 17:10:01 2014, MaxMem=   65536000 cpu:       0.2
 (Enter /apps/gaussian/g09/l103.exe)

 GradGradGradGradGradGradGradGradGradGradGradGradGradGradGradGradGradGrad
 Berny optimization.
 Search for a local minimum.
 Step number   1 out of a maximum of    2
 All quantities printed in internal units (Hartrees-Bohrs-Radians)
 Second derivative matrix not updated -- analytic derivatives used.
 The second derivative matrix:
                          X1        Y1        Z1        X2        Y2
           X1           0.00113
           Y1          -0.00802   0.01781
           Z1          -0.11105   0.08140   1.49657
           X2           0.02608   0.01734   0.02778  -0.00926
           Y2           0.02149  -0.00085  -0.10744  -0.01003  -0.00151
           Z2           0.03930  -0.10445  -1.02086  -0.06836   0.08982
           X3          -0.02279   0.00767   0.04799  -0.01906  -0.02075
           Y3           0.00183  -0.00791   0.04861  -0.01586  -0.00721
           Z3           0.04706  -0.01746  -0.40767   0.04898   0.02422
           X4           0.01238   0.00474   0.02772   0.00026  -0.00077
           Y4           0.01302  -0.01412  -0.00747  -0.00441   0.00895
           Z4          -0.00661   0.00857  -0.07478  -0.00461  -0.00293
           X5          -0.01680  -0.02172   0.00756   0.00199   0.01007
           Y5          -0.02832   0.00507  -0.01510   0.01296   0.00061
           Z5           0.03131   0.03194   0.00675  -0.00379  -0.00367
                          Z2        X3        Y3        Z3        X4
           Z2           1.06662
           X3          -0.00275   0.36749
           Y3          -0.03356   0.07171   0.11672
           Z3          -0.03695   0.15348   0.00017   0.68300
           X4           0.00508  -0.27697  -0.04390  -0.21073   0.27585
           Y4           0.00559  -0.02482  -0.01811   0.01489   0.03720
           Z4           0.01003  -0.17935  -0.00847  -0.17468   0.18663
           X5           0.02673  -0.04867  -0.01379  -0.03877  -0.01152
           Y5           0.04259  -0.03380  -0.08349  -0.02181   0.00274
           Z5          -0.01883  -0.01936  -0.00676  -0.06370  -0.00869
                          Y4        Z4        X5        Y5        Z5
           Y4           0.02893
           Z4           0.00371   0.23177
           X5          -0.02098   0.00395   0.07500
           Y5          -0.00565  -0.00088   0.04643   0.08345
           Z5          -0.01671   0.00766   0.00053  -0.00480   0.06813
     Eigenvalues ---   -0.05697   0.01027   0.08921   0.10188   0.12648
     Eigenvalues ---    0.19530   0.52373   0.95959   2.40282
 Eigenvalue     1 is  -5.70D-02 should be greater than     0.000000 Eigenvector:
                          X1        X2        Y1        Z5        Y2
   1                    0.62062  -0.41015   0.37896  -0.36289  -0.25560
                          X4        X3        Y3        Z4        X5
   1                   -0.23536  -0.14706  -0.09962   0.07037   0.06759
 Quadratic step=1.417D+00 exceeds max=3.000D-01 adjusted using Lamda=-2.500D-01.
 Angle between NR and scaled steps=  20.21 degrees.
 Angle between quadratic step and forces=  22.34 degrees.
 Linear search not attempted -- first point.
 TrRot=  0.005011  0.010930 -0.007511 -0.781574  0.003285  0.785920
 Variable       Old X    -DE/DX   Delta X   Delta X   Delta X     New X
                                 (Linear)    (Quad)   (Total)
    X1       -0.25265  -0.04924   0.00000  -0.16476  -0.15813  -0.41078
    Y1       -0.16587  -0.03645   0.00000  -0.12045  -0.11171  -0.27758
    Z1        0.16648  -0.00784   0.00000  -0.00552  -0.01273   0.15374
    X2       -0.42105   0.02297   0.00000   0.08673   0.09706  -0.32399
    Y2       -0.01872   0.01939   0.00000   0.06318   0.06719   0.04848
    Z2        2.33786   0.03151   0.00000   0.02509   0.01845   2.35631
    X3        0.60265   0.04486   0.00000   0.08146   0.08083   0.68348
    Y3        0.06063   0.05661   0.00000   0.10057   0.11937   0.18000
    Z3       -2.07653  -0.03768   0.00000  -0.04150  -0.05021  -2.12674
    X4       -0.85253   0.00377   0.00000   0.03956   0.03709  -0.81544
    Y4       -0.04476  -0.00310   0.00000  -0.01250   0.00258  -0.04218
    Z4       -3.32186  -0.00241   0.00000   0.00144  -0.00430  -3.32616
    X5        1.83905  -0.02235   0.00000  -0.04863  -0.05685   1.78220
    Y5        1.76606  -0.03644   0.00000  -0.10207  -0.07744   1.68862
    Z5       -2.62200   0.01642   0.00000   0.05658   0.04879  -2.57320
         Item               Value     Threshold  Converged?
 Maximum Force            0.056606     0.000450     NO 
 RMS     Force            0.031065     0.000300     NO 
 Maximum Displacement     0.158128     0.001800     NO 
 RMS     Displacement     0.076696     0.001200     NO 
 Predicted change in Energy=-3.150479D-02
 GradGradGradGradGradGradGradGradGradGradGradGradGradGradGradGradGradGrad

 Leave Link  103 at Fri Apr 25 17:10:01 2014, MaxMem=   65536000 cpu:       0.1
 (Enter /apps/gaussian/g09/l9999.exe)

 Test job not archived.
 1\1\GINC-ROMEO168\Freq\UM06\6-311G(d,p)\H2N3(2)\ROOT\25-Apr-2014\0\\#P
  M06 6-311G** FREQ # GFINPUT IOP(6/7=3) POP=FULL\\reverse IRC, from TS
  reverse1 freq\\0,2\N,-0.133698,-0.087776,0.088096\N,-0.222808,-0.0099
 05,1.237144\N,0.318911,0.032084,-1.098852\H,-0.451139,-0.023684,-1.757
 853\H,0.973183,0.934558,-1.3875\\Version=AM64L-G09RevA.02\State=2-A\HF
 =-165.2608594\S2=0.754325\S2-1=0.\S2A=0.750014\RMSD=6.555e-09\RMSF=3.1
 06e-02\ZeroPoint=0.0292847\Thermal=0.0325101\Dipole=-0.0178246,0.38065
 1,-1.2961741\DipoleDeriv=-0.2386127,-0.3258509,-0.2150195,-0.0905655,-
 0.084513,-0.1573772,-0.5578336,-0.2288626,1.1225792,-0.1452154,0.06386
 77,0.0011388,0.0375459,-0.1613491,0.0029654,0.6153649,0.5021254,-0.862
 8231,0.2819568,0.5915201,-0.0363712,0.5810724,0.2079014,-0.5202789,-0.
 2286853,-0.4151682,-0.3821962,0.1575652,-0.0615303,-0.0174014,-0.06898
 93,0.2542975,0.1690542,0.0385548,0.031393,0.2580562,-0.0556939,-0.2680
 067,0.2676533,-0.4590635,-0.2163369,0.5056365,0.1325992,0.1105123,-0.1
 356161\Polar=18.9706591,6.514061,17.0639275,-9.4216391,-6.5187123,41.6
 490485\PG=C01 [X(H2N3)]\NImag=1\\0.00113402,-0.00802116,0.01780916,-0.
 11105363,0.08139560,1.49656514,0.02607912,0.01734393,0.02778444,-0.009
 26349,0.02148693,-0.00084843,-0.10744079,-0.01002955,-0.00150606,0.039
 30432,-0.10444854,-1.02086167,-0.06836035,0.08982404,1.06661558,-0.022
 78998,0.00766607,0.04798520,-0.01906374,-0.02075332,-0.00274893,0.3674
 9300,0.00183350,-0.00791208,0.04861454,-0.01585618,-0.00720534,-0.0335
 6263,0.07170974,0.11671664,0.04705566,-0.01746214,-0.40767350,0.048977
 69,0.02421756,-0.03694914,0.15347555,0.00017176,0.68299988,0.01237966,
 0.00473512,0.02771934,0.00026035,-0.00077365,0.00507571,-0.27697227,-0
 .04389688,-0.21073473,0.27584932,0.01302112,-0.01412073,-0.00747336,-0
 .00441374,0.00895042,0.00559420,-0.02482134,-0.01810987,0.01488574,0.0
 3719794,0.02892550,-0.00661169,0.00857325,-0.07477830,-0.00461287,-0.0
 0292916,0.01002639,-0.17935173,-0.00846585,-0.17467525,0.18662773,0.00
 370597,0.23176911,-0.01680283,-0.02172395,0.00756464,0.00198775,0.0100
 6959,0.02672924,-0.04866702,-0.01379018,-0.03877418,-0.01151707,-0.020
 98398,0.00394856,0.07499917,-0.02832039,0.00507208,-0.01509599,0.01295
 555,0.00060941,0.04259292,-0.03380116,-0.08348936,-0.02181293,0.002737
 47,-0.00564533,-0.00088421,0.04642853,0.08345320,0.03130533,0.03194182
 ,0.00674834,-0.00378892,-0.00367166,-0.01883116,-0.01936009,-0.0067578
 2,-0.06370199,-0.00868806,-0.01671255,0.00765805,0.00053174,-0.0047997
 9,0.06812677\\0.04924337,0.03645301,0.00784102,-0.02296760,-0.01938759
 ,-0.03151026,-0.04485744,-0.05660605,0.03768484,-0.00377258,0.00309671
 ,0.00240762,0.02235425,0.03644392,-0.01642321\\\@


 VIRTUE IS LEARNED AT YOUR MOTHER'S KNEE,
 VICES ARE PICKED UP AT SOME OTHER JOINT.
 Job cpu time:  0 days  0 hours  1 minutes 54.9 seconds.
 File lengths (MBytes):  RWF=      9 Int=      0 D2E=      0 Chk=      1 Scr=      1
 Normal termination of Gaussian 09 at Fri Apr 25 17:10:01 2014.
************
total 320
drwxrwxr-x 2 henon henon   4096 25 avril 17:10 .
drwxrwxr-x 3 henon henon   4096 25 avril 17:09 ..
-rw-r--r-- 1 henon henon    392 25 avril 17:09 5Rfreq.inp
-rw-rw-r-- 1 henon henon 311609 25 avril 17:10 5Rfreq.out
Run on 12 cores
romeo168
************
