 Entering Gaussian System, Link 0=g09
 Initial command:
 /apps/gaussian/g09/l1.exe /scratch_l/henon/7Rfreq_1612/Gau-1628.inp -scrdir=/scratch_l/henon/7Rfreq_1612/
 Entering Link 1 = /apps/gaussian/g09/l1.exe PID=      1629.
  
 Copyright (c) 1988,1990,1992,1993,1995,1998,2003,2009, Gaussian, Inc.
                  All Rights Reserved.
  
 This is part of the Gaussian(R) 09 program.  It is based on
 the Gaussian(R) 03 system (copyright 2003, Gaussian, Inc.),
 the Gaussian(R) 98 system (copyright 1998, Gaussian, Inc.),
 the Gaussian(R) 94 system (copyright 1995, Gaussian, Inc.),
 the Gaussian 92(TM) system (copyright 1992, Gaussian, Inc.),
 the Gaussian 90(TM) system (copyright 1990, Gaussian, Inc.),
 the Gaussian 88(TM) system (copyright 1988, Gaussian, Inc.),
 the Gaussian 86(TM) system (copyright 1986, Carnegie Mellon
 University), and the Gaussian 82(TM) system (copyright 1983,
 Carnegie Mellon University). Gaussian is a federally registered
 trademark of Gaussian, Inc.
  
 This software contains proprietary and confidential information,
 including trade secrets, belonging to Gaussian, Inc.
  
 This software is provided under written license and may be
 used, copied, transmitted, or stored only in accord with that
 written license.
  
 The following legend is applicable only to US Government
 contracts under FAR:
  
                    RESTRICTED RIGHTS LEGEND
  
 Use, reproduction and disclosure by the US Government is
 subject to restrictions as set forth in subparagraphs (a)
 and (c) of the Commercial Computer Software - Restricted
 Rights clause in FAR 52.227-19.
  
 Gaussian, Inc.
 340 Quinnipiac St., Bldg. 40, Wallingford CT 06492
  
  
 ---------------------------------------------------------------
 Warning -- This program may not be used in any manner that
 competes with the business of Gaussian, Inc. or will provide
 assistance to any competitor of Gaussian, Inc.  The licensee
 of this program is prohibited from giving any competitor of
 Gaussian, Inc. access to this program.  By using this program,
 the user acknowledges that Gaussian, Inc. is engaged in the
 business of creating and licensing software in the field of
 computational chemistry and represents and warrants to the
 licensee that it is not a competitor of Gaussian, Inc. and that
 it will not use this program in any manner prohibited above.
 ---------------------------------------------------------------
  

 Cite this work as:
 Gaussian 09, Revision A.02,
 M. J. Frisch, G. W. Trucks, H. B. Schlegel, G. E. Scuseria, 
 M. A. Robb, J. R. Cheeseman, G. Scalmani, V. Barone, B. Mennucci, 
 G. A. Petersson, H. Nakatsuji, M. Caricato, X. Li, H. P. Hratchian, 
 A. F. Izmaylov, J. Bloino, G. Zheng, J. L. Sonnenberg, M. Hada, 
 M. Ehara, K. Toyota, R. Fukuda, J. Hasegawa, M. Ishida, T. Nakajima, 
 Y. Honda, O. Kitao, H. Nakai, T. Vreven, J. A. Montgomery, Jr., 
 J. E. Peralta, F. Ogliaro, M. Bearpark, J. J. Heyd, E. Brothers, 
 K. N. Kudin, V. N. Staroverov, R. Kobayashi, J. Normand, 
 K. Raghavachari, A. Rendell, J. C. Burant, S. S. Iyengar, J. Tomasi, 
 M. Cossi, N. Rega, J. M. Millam, M. Klene, J. E. Knox, J. B. Cross, 
 V. Bakken, C. Adamo, J. Jaramillo, R. Gomperts, R. E. Stratmann, 
 O. Yazyev, A. J. Austin, R. Cammi, C. Pomelli, J. W. Ochterski, 
 R. L. Martin, K. Morokuma, V. G. Zakrzewski, G. A. Voth, 
 P. Salvador, J. J. Dannenberg, S. Dapprich, A. D. Daniels, 
 O. Farkas, J. B. Foresman, J. V. Ortiz, J. Cioslowski, 
 and D. J. Fox, Gaussian, Inc., Wallingford CT, 2009.
 
 ******************************************
 Gaussian 09:  AM64L-G09RevA.02 11-Jun-2009
                25-Apr-2014 
 ******************************************
 %NPROC=12
 Will use up to   12 processors via shared memory.
 %MEM=500MB
 --------------------------------------------------
 #P M06 6-311G** FREQ # GFINPUT IOP(6/7=3) POP=FULL
 --------------------------------------------------
 1/10=4,30=1,38=1/1,3;
 2/12=2,17=6,18=5,40=1/2;
 3/5=4,6=6,7=101,11=2,16=1,24=10,25=1,30=1,71=2,74=-54/1,2,3;
 4//1;
 5/5=2,38=5,98=1/2;
 8/6=4,10=90,11=11/1;
 11/6=1,8=1,9=11,15=111,16=1/1,2,10;
 10/6=1/2;
 6/7=3,18=1,28=1/1;
 7/8=1,10=1,25=1/1,2,3,16;
 1/10=4,30=1/3;
 99//99;
 Leave Link    1 at Fri Apr 25 17:09:51 2014, MaxMem=   65536000 cpu:       0.4
 (Enter /apps/gaussian/g09/l101.exe)
 ----------------------------------
 reverse IRC, from TS reverse1 freq
 ----------------------------------
 Symbolic Z-matrix:
 Charge =  0 Multiplicity = 2
 7                    -0.16122  -0.10663   0.08673 
 7                    -0.20901   0.0001    1.24736 
 7                     0.33292   0.04806  -1.11061 
 1                    -0.42187  -0.04454  -1.77891 
 1                     0.94213   0.85544  -1.32524 
 
 NAtoms=      5 NQM=      5 NQMF=      0 NMic=      0 NMicF=      0 NTot=      5.
                    Isotopes and Nuclear Properties:
 (Nuclear quadrupole moments (NQMom) in fm**2, nuclear magnetic moments (NMagM)
  in nuclear magnetons)

  Atom         1           2           3           4           5
 IAtWgt=          14          14          14           1           1
 AtmWgt=  14.0030740  14.0030740  14.0030740   1.0078250   1.0078250
 NucSpn=           2           2           2           1           1
 AtZEff=   0.0000000   0.0000000   0.0000000   0.0000000   0.0000000
 NQMom=    2.0440000   2.0440000   2.0440000   0.0000000   0.0000000
 NMagM=    0.4037610   0.4037610   0.4037610   2.7928460   2.7928460
 Leave Link  101 at Fri Apr 25 17:09:51 2014, MaxMem=   65536000 cpu:       0.6
 (Enter /apps/gaussian/g09/l103.exe)

 GradGradGradGradGradGradGradGradGradGradGradGradGradGradGradGradGradGrad
 Berny optimization.
 Initialization pass.
 Trust Radius=3.00D-01 FncErr=1.00D-07 GrdErr=1.00D-07
 Number of steps in this run=   2 maximum allowed number of steps=   2.
 GradGradGradGradGradGradGradGradGradGradGradGradGradGradGradGradGradGrad

 Leave Link  103 at Fri Apr 25 17:09:52 2014, MaxMem=   65536000 cpu:       0.1
 (Enter /apps/gaussian/g09/l202.exe)
                          Input orientation:                          
 ---------------------------------------------------------------------
 Center     Atomic      Atomic             Coordinates (Angstroms)
 Number     Number       Type             X           Y           Z
 ---------------------------------------------------------------------
      1          7           0       -0.161221   -0.106630    0.086729
      2          7           0       -0.209011    0.000104    1.247360
      3          7           0        0.332921    0.048056   -1.110612
      4          1           0       -0.421866   -0.044542   -1.778906
      5          1           0        0.942132    0.855443   -1.325236
 ---------------------------------------------------------------------
                    Distance matrix (angstroms):
                    1          2          3          4          5
     1  N    0.000000
     2  N    1.166508   0.000000
     3  N    1.304504   2.419922   0.000000
     4  H    1.884777   3.034071   1.012371   0.000000
     5  H    2.033868   2.945333   1.033961   1.695960   0.000000
 Stoichiometry    H2N3(2)
 Framework group  C1[X(H2N3)]
 Deg. of freedom     9
 Full point group                 C1      NOp   1
 Largest Abelian subgroup         C1      NOp   1
 Largest concise Abelian subgroup C1      NOp   1
                         Standard orientation:                         
 ---------------------------------------------------------------------
 Center     Atomic      Atomic             Coordinates (Angstroms)
 Number     Number       Type             X           Y           Z
 ---------------------------------------------------------------------
      1          7           0        0.194717   -0.175080   -0.014109
      2          7           0        1.329276    0.093636    0.022048
      3          7           0       -1.087821    0.051847   -0.087129
      4          1           0       -1.572960   -0.742439    0.311173
      5          1           0       -1.480242    0.949618    0.243156
 ---------------------------------------------------------------------
 Rotational constants (GHZ):    219.6350912     10.8437960     10.4400537
 Leave Link  202 at Fri Apr 25 17:09:52 2014, MaxMem=   65536000 cpu:       0.1
 (Enter /apps/gaussian/g09/l301.exe)
 Standard basis: 6-311G(d,p) (5D, 7F)
 Ernie: Thresh=  0.10000D-02 Tol=  0.10000D-05 Strict=F.
 AO basis set in the form of general basis input (Overlap normalization):
      1 0
 S   6 1.00       0.000000000000
      0.6293480000D+04  0.1969788147D-02
      0.9490440000D+03  0.1496128592D-01
      0.2187760000D+03  0.7350053084D-01
      0.6369160000D+02  0.2489367658D+00
      0.1882820000D+02  0.6024594331D+00
      0.2720230000D+01  0.2562017589D+00
 SP   3 1.00       0.000000000000
      0.3063310000D+02  0.1119060795D+00  0.3831191864D-01
      0.7026140000D+01  0.9216666549D+00  0.2374031155D+00
      0.2112050000D+01 -0.2569191826D-02  0.8175923978D+00
 SP   1 1.00       0.000000000000
      0.6840090000D+00  0.1000000000D+01  0.1000000000D+01
 SP   1 1.00       0.000000000000
      0.2008780000D+00  0.1000000000D+01  0.1000000000D+01
 D   1 1.00       0.000000000000
      0.9130000000D+00  0.1000000000D+01
 ****
      2 0
 S   6 1.00       0.000000000000
      0.6293480000D+04  0.1969788147D-02
      0.9490440000D+03  0.1496128592D-01
      0.2187760000D+03  0.7350053084D-01
      0.6369160000D+02  0.2489367658D+00
      0.1882820000D+02  0.6024594331D+00
      0.2720230000D+01  0.2562017589D+00
 SP   3 1.00       0.000000000000
      0.3063310000D+02  0.1119060795D+00  0.3831191864D-01
      0.7026140000D+01  0.9216666549D+00  0.2374031155D+00
      0.2112050000D+01 -0.2569191826D-02  0.8175923978D+00
 SP   1 1.00       0.000000000000
      0.6840090000D+00  0.1000000000D+01  0.1000000000D+01
 SP   1 1.00       0.000000000000
      0.2008780000D+00  0.1000000000D+01  0.1000000000D+01
 D   1 1.00       0.000000000000
      0.9130000000D+00  0.1000000000D+01
 ****
      3 0
 S   6 1.00       0.000000000000
      0.6293480000D+04  0.1969788147D-02
      0.9490440000D+03  0.1496128592D-01
      0.2187760000D+03  0.7350053084D-01
      0.6369160000D+02  0.2489367658D+00
      0.1882820000D+02  0.6024594331D+00
      0.2720230000D+01  0.2562017589D+00
 SP   3 1.00       0.000000000000
      0.3063310000D+02  0.1119060795D+00  0.3831191864D-01
      0.7026140000D+01  0.9216666549D+00  0.2374031155D+00
      0.2112050000D+01 -0.2569191826D-02  0.8175923978D+00
 SP   1 1.00       0.000000000000
      0.6840090000D+00  0.1000000000D+01  0.1000000000D+01
 SP   1 1.00       0.000000000000
      0.2008780000D+00  0.1000000000D+01  0.1000000000D+01
 D   1 1.00       0.000000000000
      0.9130000000D+00  0.1000000000D+01
 ****
      4 0
 S   3 1.00       0.000000000000
      0.3386500000D+02  0.2549381454D-01
      0.5094790000D+01  0.1903731086D+00
      0.1158790000D+01  0.8521614860D+00
 S   1 1.00       0.000000000000
      0.3258400000D+00  0.1000000000D+01
 S   1 1.00       0.000000000000
      0.1027410000D+00  0.1000000000D+01
 P   1 1.00       0.000000000000
      0.7500000000D+00  0.1000000000D+01
 ****
      5 0
 S   3 1.00       0.000000000000
      0.3386500000D+02  0.2549381454D-01
      0.5094790000D+01  0.1903731086D+00
      0.1158790000D+01  0.8521614860D+00
 S   1 1.00       0.000000000000
      0.3258400000D+00  0.1000000000D+01
 S   1 1.00       0.000000000000
      0.1027410000D+00  0.1000000000D+01
 P   1 1.00       0.000000000000
      0.7500000000D+00  0.1000000000D+01
 ****

 There are    66 symmetry adapted basis functions of A   symmetry.
 Integral buffers will be    131072 words long.
 Raffenetti 2 integral format.
 Two-electron integral symmetry is turned on.
    66 basis functions,   112 primitive gaussians,    69 cartesian basis functions
    12 alpha electrons       11 beta electrons
       nuclear repulsion energy        66.6393547950 Hartrees.
 IExCor= 4235 DFT=T Ex+Corr=M06 ExCW=0 ScaHFX=  0.270000
 ScaDFX=  1.000000  1.000000  1.000000  1.000000 ScalE2=  1.000000  1.000000
 IRadAn=      0 IRanWt=     -1 IRanGd=            0 ICorTp=0
 NAtoms=    5 NActive=    5 NUniq=    5 SFac= 7.50D-01 NAtFMM=   80 NAOKFM=F Big=F
 Leave Link  301 at Fri Apr 25 17:09:52 2014, MaxMem=   65536000 cpu:       0.3
 (Enter /apps/gaussian/g09/l302.exe)
 NPDir=0 NMtPBC=     1 NCelOv=     1 NCel=       1 NClECP=     1 NCelD=      1
         NCelK=      1 NCelE2=     1 NClLst=     1 CellRange=     0.0.
 One-electron integrals computed using PRISM.
 NBasis=    66 RedAO= T  NBF=    66
 NBsUse=    66 1.00D-06 NBFU=    66
 Precomputing XC quadrature grid using
 IXCGrd= 2 IRadAn=           0 IRanWt=          -1 IRanGd=           0 AccXCQ= 1.00D-10.
 NRdTot=     311 NPtTot=       39306 NUsed=       41561 NTot=       41593
 NSgBfM=    69    69    69    69    69 NAtAll=     5     5.
 Leave Link  302 at Fri Apr 25 17:09:52 2014, MaxMem=   65536000 cpu:       1.4
 (Enter /apps/gaussian/g09/l303.exe)
 DipDrv:  MaxL=1.
 Leave Link  303 at Fri Apr 25 17:09:52 2014, MaxMem=   65536000 cpu:       0.2
 (Enter /apps/gaussian/g09/l401.exe)
 Harris functional with IExCor= 1009 diagonalized for initial guess.
 ExpMin= 1.03D-01 ExpMax= 6.29D+03 ExpMxC= 9.49D+02 IAcc=1 IRadAn=         1 AccDes= 0.00D+00
 HarFok:  IExCor= 1009 AccDes= 0.00D+00 IRadAn=         1 IDoV= 1
 ScaDFX=  1.000000  1.000000  1.000000  1.000000
 FoFCou: FMM=F IPFlag=           0 FMFlag=      100000 FMFlg1=           0
         NFxFlg=           0 DoJE=T BraDBF=F KetDBF=T FulRan=T
         Omega=  0.000000  0.000000  1.000000  0.000000  0.000000 ICntrl=     500 IOpCl=  0
         NMat0=    1 NMatS0=    1 NMatT0=    0 NMatD0=    1 NMtDS0=    0 NMtDT0=    0
         I1Cent=           4 NGrid=           0.
 Petite list used in FoFCou.
 Harris En= -165.233038041855    
 Initial guess orbital symmetries:
 Alpha Orbitals:
       Occupied  (A) (A) (A) (A) (A) (A) (A) (A) (A) (A) (A) (A)
       Virtual   (A) (A) (A) (A) (A) (A) (A) (A) (A) (A) (A) (A)
                 (A) (A) (A) (A) (A) (A) (A) (A) (A) (A) (A) (A)
                 (A) (A) (A) (A) (A) (A) (A) (A) (A) (A) (A) (A)
                 (A) (A) (A) (A) (A) (A) (A) (A) (A) (A) (A) (A)
                 (A) (A) (A) (A) (A) (A)
 Beta  Orbitals:
       Occupied  (A) (A) (A) (A) (A) (A) (A) (A) (A) (A) (A)
       Virtual   (A) (A) (A) (A) (A) (A) (A) (A) (A) (A) (A) (A)
                 (A) (A) (A) (A) (A) (A) (A) (A) (A) (A) (A) (A)
                 (A) (A) (A) (A) (A) (A) (A) (A) (A) (A) (A) (A)
                 (A) (A) (A) (A) (A) (A) (A) (A) (A) (A) (A) (A)
                 (A) (A) (A) (A) (A) (A) (A)
 The electronic state of the initial guess is 2-A.
 Initial guess <Sx>= 0.0000 <Sy>= 0.0000 <Sz>= 0.5000 <S**2>= 0.7500 S= 0.5000
 Leave Link  401 at Fri Apr 25 17:09:52 2014, MaxMem=   65536000 cpu:       1.6
 (Enter /apps/gaussian/g09/l502.exe)
 UHF open shell SCF:
 Requested convergence on RMS density matrix=1.00D-08 within 128 cycles.
 Requested convergence on MAX density matrix=1.00D-06.
 Requested convergence on             energy=1.00D-06.
 No special actions if energy rises.
 Using DIIS extrapolation, IDIIS=  1040.
 Integral symmetry usage will be decided dynamically.
        41503 words used for storage of precomputed grid.
 Keep R1 and R2 ints in memory in canonical form, NReq=6799076.
 IEnd=       75273 IEndB=       75273 NGot=    65536000 MDV=    59647530
 LenX=    59647530 LenY=    59642328
 Symmetry not used in FoFDir.
 MinBra= 0 MaxBra= 2 Meth= 1.
 IRaf=       0 NMat=   1 IRICut=       1 DoRegI=T DoRafI=F ISym2E= 0 JSym2E=0.
 Integral accuracy reduced to 1.0D-05 until final iterations.

 Cycle   1  Pass 0  IDiag  1:
 E= -165.225496593955    
 DIIS: error= 2.79D-02 at cycle   1 NSaved=   1.
 NSaved= 1 IEnMin= 1 EnMin= -165.225496593955     IErMin= 1 ErrMin= 2.79D-02
 ErrMax= 2.79D-02 EMaxC= 1.00D-01 BMatC= 2.16D-01 BMatP= 2.16D-01
 IDIUse=3 WtCom= 7.21D-01 WtEn= 2.79D-01
 Coeff-Com:  0.100D+01
 Coeff-En:   0.100D+01
 Coeff:      0.100D+01
 Gap=     0.159 Goal=   None    Shift=    0.000
 Gap=     0.293 Goal=   None    Shift=    0.000
 GapD=    0.159 DampG=1.000 DampE=0.500 DampFc=0.5000 IDamp=-1.
 Damping current iteration by 5.00D-01
 RMSDP=9.40D-03 MaxDP=2.74D-01              OVMax= 2.14D-01

 Cycle   2  Pass 0  IDiag  1:
 E= -165.238983437415     Delta-E=       -0.013486843460 Rises=F Damp=T
 DIIS: error= 1.12D-02 at cycle   2 NSaved=   2.
 NSaved= 2 IEnMin= 2 EnMin= -165.238983437415     IErMin= 2 ErrMin= 1.12D-02
 ErrMax= 1.12D-02 EMaxC= 1.00D-01 BMatC= 4.43D-02 BMatP= 2.16D-01
 IDIUse=3 WtCom= 8.88D-01 WtEn= 1.12D-01
 Coeff-Com:  0.229D+00 0.771D+00
 Coeff-En:   0.337D+00 0.663D+00
 Coeff:      0.241D+00 0.759D+00
 Gap=     0.170 Goal=   None    Shift=    0.000
 Gap=     0.289 Goal=   None    Shift=    0.000
 RMSDP=2.24D-03 MaxDP=6.66D-02 DE=-1.35D-02 OVMax= 1.40D-01

 Cycle   3  Pass 0  IDiag  1:
 E= -165.266811453804     Delta-E=       -0.027828016389 Rises=F Damp=F
 DIIS: error= 1.36D-02 at cycle   3 NSaved=   3.
 NSaved= 3 IEnMin= 3 EnMin= -165.266811453804     IErMin= 2 ErrMin= 1.12D-02
 ErrMax= 1.36D-02 EMaxC= 1.00D-01 BMatC= 4.01D-02 BMatP= 4.43D-02
 IDIUse=3 WtCom= 8.64D-01 WtEn= 1.36D-01
 Coeff-Com:  0.664D-01 0.470D+00 0.464D+00
 Coeff-En:   0.000D+00 0.000D+00 0.100D+01
 Coeff:      0.573D-01 0.406D+00 0.537D+00
 Gap=     0.158 Goal=   None    Shift=    0.000
 Gap=     0.291 Goal=   None    Shift=    0.000
 RMSDP=1.42D-03 MaxDP=1.83D-02 DE=-2.78D-02 OVMax= 5.01D-02

 Cycle   4  Pass 0  IDiag  1:
 E= -165.272708684416     Delta-E=       -0.005897230613 Rises=F Damp=F
 DIIS: error= 7.13D-03 at cycle   4 NSaved=   4.
 NSaved= 4 IEnMin= 4 EnMin= -165.272708684416     IErMin= 4 ErrMin= 7.13D-03
 ErrMax= 7.13D-03 EMaxC= 1.00D-01 BMatC= 1.10D-02 BMatP= 4.01D-02
 IDIUse=3 WtCom= 9.29D-01 WtEn= 7.13D-02
 Coeff-Com:  0.197D-01 0.262D-01 0.335D+00 0.619D+00
 Coeff-En:   0.000D+00 0.000D+00 0.262D+00 0.738D+00
 Coeff:      0.183D-01 0.243D-01 0.330D+00 0.627D+00
 Gap=     0.160 Goal=   None    Shift=    0.000
 Gap=     0.286 Goal=   None    Shift=    0.000
 RMSDP=7.49D-04 MaxDP=1.83D-02 DE=-5.90D-03 OVMax= 2.14D-02

 Cycle   5  Pass 0  IDiag  1:
 E= -165.274923473981     Delta-E=       -0.002214789565 Rises=F Damp=F
 DIIS: error= 1.12D-03 at cycle   5 NSaved=   5.
 NSaved= 5 IEnMin= 5 EnMin= -165.274923473981     IErMin= 5 ErrMin= 1.12D-03
 ErrMax= 1.12D-03 EMaxC= 1.00D-01 BMatC= 2.34D-04 BMatP= 1.10D-02
 IDIUse=3 WtCom= 9.89D-01 WtEn= 1.12D-02
 Coeff-Com:  0.551D-02-0.195D-01 0.119D+00 0.290D+00 0.605D+00
 Coeff-En:   0.000D+00 0.000D+00 0.000D+00 0.000D+00 0.100D+01
 Coeff:      0.544D-02-0.193D-01 0.118D+00 0.287D+00 0.609D+00
 Gap=     0.160 Goal=   None    Shift=    0.000
 Gap=     0.288 Goal=   None    Shift=    0.000
 RMSDP=1.15D-04 MaxDP=1.71D-03 DE=-2.21D-03 OVMax= 3.78D-03

 Cycle   6  Pass 0  IDiag  1:
 E= -165.274983258870     Delta-E=       -0.000059784889 Rises=F Damp=F
 DIIS: error= 5.16D-04 at cycle   6 NSaved=   6.
 NSaved= 6 IEnMin= 6 EnMin= -165.274983258870     IErMin= 6 ErrMin= 5.16D-04
 ErrMax= 5.16D-04 EMaxC= 1.00D-01 BMatC= 3.05D-05 BMatP= 2.34D-04
 IDIUse=3 WtCom= 9.95D-01 WtEn= 5.16D-03
 Coeff-Com: -0.252D-02-0.127D-01-0.324D-01-0.483D-01 0.197D+00 0.899D+00
 Coeff-En:   0.000D+00 0.000D+00 0.000D+00 0.000D+00 0.000D+00 0.100D+01
 Coeff:     -0.251D-02-0.126D-01-0.323D-01-0.480D-01 0.195D+00 0.900D+00
 Gap=     0.161 Goal=   None    Shift=    0.000
 Gap=     0.288 Goal=   None    Shift=    0.000
 RMSDP=1.14D-04 MaxDP=3.33D-03 DE=-5.98D-05 OVMax= 3.16D-03

 Cycle   7  Pass 0  IDiag  1:
 E= -165.275003189051     Delta-E=       -0.000019930181 Rises=F Damp=F
 DIIS: error= 2.25D-04 at cycle   7 NSaved=   7.
 NSaved= 7 IEnMin= 7 EnMin= -165.275003189051     IErMin= 7 ErrMin= 2.25D-04
 ErrMax= 2.25D-04 EMaxC= 1.00D-01 BMatC= 4.80D-06 BMatP= 3.05D-05
 IDIUse=3 WtCom= 9.98D-01 WtEn= 2.25D-03
 Coeff-Com: -0.511D-03 0.288D-02-0.188D-01-0.496D-01-0.151D+00 0.529D-01
 Coeff-Com:  0.116D+01
 Coeff-En:   0.000D+00 0.000D+00 0.000D+00 0.000D+00 0.000D+00 0.000D+00
 Coeff-En:   0.100D+01
 Coeff:     -0.510D-03 0.287D-02-0.187D-01-0.495D-01-0.150D+00 0.528D-01
 Coeff:      0.116D+01
 Gap=     0.161 Goal=   None    Shift=    0.000
 Gap=     0.288 Goal=   None    Shift=    0.000
 RMSDP=4.79D-05 MaxDP=9.90D-04 DE=-1.99D-05 OVMax= 2.09D-03

 Cycle   8  Pass 0  IDiag  1:
 E= -165.275008856830     Delta-E=       -0.000005667779 Rises=F Damp=F
 DIIS: error= 7.96D-05 at cycle   8 NSaved=   8.
 NSaved= 8 IEnMin= 8 EnMin= -165.275008856830     IErMin= 8 ErrMin= 7.96D-05
 ErrMax= 7.96D-05 EMaxC= 1.00D-01 BMatC= 5.46D-07 BMatP= 4.80D-06
 IDIUse=1 WtCom= 1.00D+00 WtEn= 0.00D+00
 Coeff-Com:  0.616D-03 0.555D-03 0.701D-02 0.138D-01-0.932D-02-0.132D+00
 Coeff-Com: -0.202D+00 0.132D+01
 Coeff:      0.616D-03 0.555D-03 0.701D-02 0.138D-01-0.932D-02-0.132D+00
 Coeff:     -0.202D+00 0.132D+01
 Gap=     0.161 Goal=   None    Shift=    0.000
 Gap=     0.288 Goal=   None    Shift=    0.000
 RMSDP=2.15D-05 MaxDP=3.85D-04 DE=-5.67D-06 OVMax= 1.20D-03

 Cycle   9  Pass 0  IDiag  1:
 E= -165.275009864650     Delta-E=       -0.000001007820 Rises=F Damp=F
 DIIS: error= 2.67D-05 at cycle   9 NSaved=   9.
 NSaved= 9 IEnMin= 9 EnMin= -165.275009864650     IErMin= 9 ErrMin= 2.67D-05
 ErrMax= 2.67D-05 EMaxC= 1.00D-01 BMatC= 8.39D-08 BMatP= 5.46D-07
 IDIUse=1 WtCom= 1.00D+00 WtEn= 0.00D+00
 Coeff-Com:  0.124D-05-0.526D-04 0.211D-02 0.657D-02 0.219D-01-0.973D-02
 Coeff-Com: -0.158D+00-0.106D-01 0.115D+01
 Coeff:      0.124D-05-0.526D-04 0.211D-02 0.657D-02 0.219D-01-0.973D-02
 Coeff:     -0.158D+00-0.106D-01 0.115D+01
 Gap=     0.161 Goal=   None    Shift=    0.000
 Gap=     0.288 Goal=   None    Shift=    0.000
 RMSDP=6.62D-06 MaxDP=1.18D-04 DE=-1.01D-06 OVMax= 3.58D-04

 Initial convergence to 1.0D-05 achieved.  Increase integral accuracy.
 Cycle  10  Pass 1  IDiag  1:
 E= -165.275010472120     Delta-E=       -0.000000607469 Rises=F Damp=F
 DIIS: error= 1.66D-04 at cycle   1 NSaved=   1.
 NSaved= 1 IEnMin= 1 EnMin= -165.275010472120     IErMin= 1 ErrMin= 1.66D-04
 ErrMax= 1.66D-04 EMaxC= 1.00D-01 BMatC= 8.87D-06 BMatP= 8.87D-06
 IDIUse=3 WtCom= 9.98D-01 WtEn= 1.66D-03
 Coeff-Com:  0.100D+01
 Coeff-En:   0.100D+01
 Coeff:      0.100D+01
 Gap=     0.161 Goal=   None    Shift=    0.000
 Gap=     0.288 Goal=   None    Shift=    0.000
 RMSDP=6.62D-06 MaxDP=1.18D-04 DE=-6.07D-07 OVMax= 4.18D-04

 Cycle  11  Pass 1  IDiag  1:
 E= -165.275012391882     Delta-E=       -0.000001919762 Rises=F Damp=F
 DIIS: error= 1.06D-05 at cycle   2 NSaved=   2.
 NSaved= 2 IEnMin= 2 EnMin= -165.275012391882     IErMin= 2 ErrMin= 1.06D-05
 ErrMax= 1.06D-05 EMaxC= 1.00D-01 BMatC= 5.98D-08 BMatP= 8.87D-06
 IDIUse=1 WtCom= 1.00D+00 WtEn= 0.00D+00
 Coeff-Com: -0.109D-01 0.101D+01
 Coeff:     -0.109D-01 0.101D+01
 Gap=     0.161 Goal=   None    Shift=    0.000
 Gap=     0.288 Goal=   None    Shift=    0.000
 RMSDP=5.43D-06 MaxDP=7.90D-05 DE=-1.92D-06 OVMax= 5.09D-05

 Cycle  12  Pass 1  IDiag  1:
 E= -165.275012404893     Delta-E=       -0.000000013011 Rises=F Damp=F
 DIIS: error= 1.02D-05 at cycle   3 NSaved=   3.
 NSaved= 3 IEnMin= 3 EnMin= -165.275012404893     IErMin= 3 ErrMin= 1.02D-05
 ErrMax= 1.02D-05 EMaxC= 1.00D-01 BMatC= 1.93D-08 BMatP= 5.98D-08
 IDIUse=1 WtCom= 1.00D+00 WtEn= 0.00D+00
 Coeff-Com: -0.998D-02 0.321D+00 0.689D+00
 Coeff:     -0.998D-02 0.321D+00 0.689D+00
 Gap=     0.161 Goal=   None    Shift=    0.000
 Gap=     0.288 Goal=   None    Shift=    0.000
 RMSDP=1.34D-06 MaxDP=2.54D-05 DE=-1.30D-08 OVMax= 3.99D-05

 Cycle  13  Pass 1  IDiag  1:
 E= -165.275012404834     Delta-E=        0.000000000059 Rises=F Damp=F
 DIIS: error= 1.06D-05 at cycle   4 NSaved=   4.
 NSaved= 4 IEnMin= 3 EnMin= -165.275012404893     IErMin= 3 ErrMin= 1.02D-05
 ErrMax= 1.06D-05 EMaxC= 1.00D-01 BMatC= 1.99D-08 BMatP= 1.93D-08
 IDIUse=1 WtCom= 1.00D+00 WtEn= 0.00D+00
 Coeff-Com: -0.561D-02 0.100D+00 0.492D+00 0.414D+00
 Coeff:     -0.561D-02 0.100D+00 0.492D+00 0.414D+00
 Gap=     0.161 Goal=   None    Shift=    0.000
 Gap=     0.288 Goal=   None    Shift=    0.000
 RMSDP=8.63D-07 MaxDP=1.91D-05 DE= 5.92D-11 OVMax= 2.63D-05

 Cycle  14  Pass 1  IDiag  1:
 E= -165.275012408580     Delta-E=       -0.000000003745 Rises=F Damp=F
 DIIS: error= 2.45D-06 at cycle   5 NSaved=   5.
 NSaved= 5 IEnMin= 5 EnMin= -165.275012408580     IErMin= 5 ErrMin= 2.45D-06
 ErrMax= 2.45D-06 EMaxC= 1.00D-01 BMatC= 9.03D-10 BMatP= 1.93D-08
 IDIUse=1 WtCom= 1.00D+00 WtEn= 0.00D+00
 Coeff-Com: -0.138D-02 0.391D-02 0.127D+00 0.206D+00 0.664D+00
 Coeff:     -0.138D-02 0.391D-02 0.127D+00 0.206D+00 0.664D+00
 Gap=     0.161 Goal=   None    Shift=    0.000
 Gap=     0.288 Goal=   None    Shift=    0.000
 RMSDP=2.16D-07 MaxDP=2.93D-06 DE=-3.75D-09 OVMax= 1.03D-05

 Cycle  15  Pass 1  IDiag  1:
 E= -165.275012408790     Delta-E=       -0.000000000210 Rises=F Damp=F
 DIIS: error= 1.01D-06 at cycle   6 NSaved=   6.
 NSaved= 6 IEnMin= 6 EnMin= -165.275012408790     IErMin= 6 ErrMin= 1.01D-06
 ErrMax= 1.01D-06 EMaxC= 1.00D-01 BMatC= 1.63D-10 BMatP= 9.03D-10
 IDIUse=1 WtCom= 1.00D+00 WtEn= 0.00D+00
 Coeff-Com: -0.594D-04-0.105D-01 0.687D-02 0.571D-01 0.348D+00 0.598D+00
 Coeff:     -0.594D-04-0.105D-01 0.687D-02 0.571D-01 0.348D+00 0.598D+00
 Gap=     0.161 Goal=   None    Shift=    0.000
 Gap=     0.288 Goal=   None    Shift=    0.000
 RMSDP=1.02D-07 MaxDP=1.38D-06 DE=-2.10D-10 OVMax= 3.71D-06

 Cycle  16  Pass 1  IDiag  1:
 E= -165.275012408843     Delta-E=       -0.000000000053 Rises=F Damp=F
 DIIS: error= 4.47D-07 at cycle   7 NSaved=   7.
 NSaved= 7 IEnMin= 7 EnMin= -165.275012408843     IErMin= 7 ErrMin= 4.47D-07
 ErrMax= 4.47D-07 EMaxC= 1.00D-01 BMatC= 2.18D-11 BMatP= 1.63D-10
 IDIUse=1 WtCom= 1.00D+00 WtEn= 0.00D+00
 Coeff-Com:  0.301D-03-0.220D-02-0.288D-01-0.382D-01-0.975D-01 0.115D+00
 Coeff-Com:  0.105D+01
 Coeff:      0.301D-03-0.220D-02-0.288D-01-0.382D-01-0.975D-01 0.115D+00
 Coeff:      0.105D+01
 Gap=     0.161 Goal=   None    Shift=    0.000
 Gap=     0.288 Goal=   None    Shift=    0.000
 RMSDP=9.06D-08 MaxDP=1.37D-06 DE=-5.35D-11 OVMax= 4.26D-06

 Cycle  17  Pass 1  IDiag  1:
 E= -165.275012408866     Delta-E=       -0.000000000023 Rises=F Damp=F
 DIIS: error= 2.42D-07 at cycle   8 NSaved=   8.
 NSaved= 8 IEnMin= 8 EnMin= -165.275012408866     IErMin= 8 ErrMin= 2.42D-07
 ErrMax= 2.42D-07 EMaxC= 1.00D-01 BMatC= 7.63D-12 BMatP= 2.18D-11
 IDIUse=1 WtCom= 1.00D+00 WtEn= 0.00D+00
 Coeff-Com:  0.141D-03 0.163D-02-0.129D-01-0.324D-01-0.147D+00-0.167D+00
 Coeff-Com:  0.426D+00 0.932D+00
 Coeff:      0.141D-03 0.163D-02-0.129D-01-0.324D-01-0.147D+00-0.167D+00
 Coeff:      0.426D+00 0.932D+00
 Gap=     0.161 Goal=   None    Shift=    0.000
 Gap=     0.288 Goal=   None    Shift=    0.000
 RMSDP=6.16D-08 MaxDP=8.83D-07 DE=-2.32D-11 OVMax= 2.49D-06

 Cycle  18  Pass 1  IDiag  1:
 E= -165.275012408874     Delta-E=       -0.000000000008 Rises=F Damp=F
 DIIS: error= 9.61D-08 at cycle   9 NSaved=   9.
 NSaved= 9 IEnMin= 9 EnMin= -165.275012408874     IErMin= 9 ErrMin= 9.61D-08
 ErrMax= 9.61D-08 EMaxC= 1.00D-01 BMatC= 8.91D-13 BMatP= 7.63D-12
 IDIUse=1 WtCom= 1.00D+00 WtEn= 0.00D+00
 Coeff-Com: -0.421D-04 0.873D-03 0.429D-02 0.398D-02-0.805D-02-0.625D-01
 Coeff-Com: -0.153D+00 0.181D+00 0.103D+01
 Coeff:     -0.421D-04 0.873D-03 0.429D-02 0.398D-02-0.805D-02-0.625D-01
 Coeff:     -0.153D+00 0.181D+00 0.103D+01
 Gap=     0.161 Goal=   None    Shift=    0.000
 Gap=     0.288 Goal=   None    Shift=    0.000
 RMSDP=2.98D-08 MaxDP=6.06D-07 DE=-8.10D-12 OVMax= 1.27D-06

 Cycle  19  Pass 1  IDiag  1:
 E= -165.275012408876     Delta-E=       -0.000000000002 Rises=F Damp=F
 DIIS: error= 1.87D-08 at cycle  10 NSaved=  10.
 NSaved=10 IEnMin=10 EnMin= -165.275012408876     IErMin=10 ErrMin= 1.87D-08
 ErrMax= 1.87D-08 EMaxC= 1.00D-01 BMatC= 7.59D-14 BMatP= 8.91D-13
 IDIUse=1 WtCom= 1.00D+00 WtEn= 0.00D+00
 Coeff-Com: -0.239D-04-0.186D-04 0.229D-02 0.478D-02 0.159D-01 0.944D-02
 Coeff-Com: -0.664D-01-0.967D-01 0.161D+00 0.970D+00
 Coeff:     -0.239D-04-0.186D-04 0.229D-02 0.478D-02 0.159D-01 0.944D-02
 Coeff:     -0.664D-01-0.967D-01 0.161D+00 0.970D+00
 Gap=     0.161 Goal=   None    Shift=    0.000
 Gap=     0.288 Goal=   None    Shift=    0.000
 RMSDP=7.89D-09 MaxDP=1.66D-07 DE=-1.62D-12 OVMax= 2.74D-07

 SCF Done:  E(UM06) =  -165.275012409     A.U. after   19 cycles
             Convg  =    0.7891D-08             -V/T =  2.0015
 <Sx>= 0.0000 <Sy>= 0.0000 <Sz>= 0.5000 <S**2>= 0.7538 S= 0.5019
 <L.S>=  0.00000000000    
 KE= 1.650210548152D+02 PE=-5.205309337584D+02 EE= 1.235955117392D+02
 Annihilation of the first spin contaminant:
 S**2 before annihilation     0.7538,   after     0.7500
 Leave Link  502 at Fri Apr 25 17:09:53 2014, MaxMem=   65536000 cpu:      15.9
 (Enter /apps/gaussian/g09/l801.exe)
 Range of M.O.s used for correlation:     1    66
 NBasis=    66 NAE=    12 NBE=    11 NFC=     0 NFV=     0
 NROrb=     66 NOA=    12 NOB=    11 NVA=    54 NVB=    55
 Leave Link  801 at Fri Apr 25 17:09:53 2014, MaxMem=   65536000 cpu:       0.2
 (Enter /apps/gaussian/g09/l1101.exe)
 Using compressed storage, NAtomX=     5.
 Will process   6 centers per pass.
 Leave Link 1101 at Fri Apr 25 17:09:54 2014, MaxMem=   65536000 cpu:       1.2
 (Enter /apps/gaussian/g09/l1102.exe)
 Symmetrizing basis deriv contribution to polar:
 IMax=3 JMax=2 DiffMx= 0.00D+00
 Leave Link 1102 at Fri Apr 25 17:09:54 2014, MaxMem=   65536000 cpu:       0.2
 (Enter /apps/gaussian/g09/l1110.exe)
 Forming Gx(P) for the SCF density, NAtomX=     5.
 Integral derivatives from FoFDir/FoFCou, PRISM(SPDF).
 Do as many integral derivatives as possible in FoFDir.
 G2DrvN: MDV=      65535856.
 G2DrvN: will do     6 centers at a time, making    1 passes doing MaxLOS=2.
 Calling FoFCou, ICntrl=  3107 FMM=F I1Cent=   0 AccDes= 0.00D+00.
 FoFCou: FMM=F IPFlag=           0 FMFlag=      100000 FMFlg1=           0
         NFxFlg=           0 DoJE=F BraDBF=F KetDBF=F FulRan=T
         Omega=  0.000000  0.000000  1.000000  0.000000  0.000000 ICntrl=    3107 IOpCl=  1
         NMat0=    1 NMatS0=    1 NMatT0=    0 NMatD0=    1 NMtDS0=    0 NMtDT0=    0
         I1Cent=           0 NGrid=           0.
 Symmetry not used in FoFCou.
 FoFDir/FoFCou used for L=0 through L=2.
 End of G2Drv Frequency-dependent properties file   721 does not exist.
 End of G2Drv Frequency-dependent properties file   722 does not exist.
 Leave Link 1110 at Fri Apr 25 17:09:55 2014, MaxMem=   65536000 cpu:      16.8
 (Enter /apps/gaussian/g09/l1002.exe)
 Minotr:  UHF open shell wavefunction.
          IDoAtm=11111
          Direct CPHF calculation.
          Differentiating once with respect to electric field.
                with respect to dipole field.
          Differentiating once with respect to nuclear coordinates.
          Requested convergence is 1.0D-08 RMS, and 1.0D-07 maximum.
          Secondary convergence is 1.0D-12 RMS, and 1.0D-12 maximum.
          NewPWx=T KeepS1=F KeepF1=F KeepIn=T MapXYZ=F SortEE=F KeepMc=T.
          MDV=      65535946 using IRadAn=       2.
 Generate precomputed XC quadrature information.
          Keep R1 and R2 ints in memory in canonical form, NReq=6656460.
 Symmetry not used in FoFDir.
 MinBra= 0 MaxBra= 2 Meth= 1.
 IRaf=       0 NMat=   1 IRICut=       1 DoRegI=T DoRafI=F ISym2E= 0 JSym2E=0.
          Solving linear equations simultaneously, MaxMat=       0.
          There are    18 degrees of freedom in the 1st order CPHF.  IDoFFX=5.
     15 vectors produced by pass  0 Test12= 6.96D-15 5.56D-09 XBig12= 9.56D+01 4.18D+00.
 AX will form    15 AO Fock derivatives at one time.
     15 vectors produced by pass  1 Test12= 6.96D-15 5.56D-09 XBig12= 3.10D+01 1.51D+00.
     15 vectors produced by pass  2 Test12= 6.96D-15 5.56D-09 XBig12= 7.96D-01 1.94D-01.
     15 vectors produced by pass  3 Test12= 6.96D-15 5.56D-09 XBig12= 8.91D-03 1.84D-02.
     15 vectors produced by pass  4 Test12= 6.96D-15 5.56D-09 XBig12= 1.20D-04 2.34D-03.
     15 vectors produced by pass  5 Test12= 6.96D-15 5.56D-09 XBig12= 1.22D-06 2.43D-04.
     14 vectors produced by pass  6 Test12= 6.96D-15 5.56D-09 XBig12= 7.44D-09 1.23D-05.
      7 vectors produced by pass  7 Test12= 6.96D-15 5.56D-09 XBig12= 2.80D-11 9.38D-07.
      2 vectors produced by pass  8 Test12= 6.96D-15 5.56D-09 XBig12= 1.20D-13 5.86D-08.
 Inverted reduced A of dimension   113 with in-core refinement.
 FullF1:  Do perturbations    1 to     3.
 Isotropic polarizability for W=    0.000000       22.85 Bohr**3.
 End of Minotr Frequency-dependent properties file   721 does not exist.
 End of Minotr Frequency-dependent properties file   722 does not exist.
 Leave Link 1002 at Fri Apr 25 17:09:57 2014, MaxMem=   65536000 cpu:      26.0
 (Enter /apps/gaussian/g09/l601.exe)
 Copying SCF densities to generalized density rwf, IOpCl= 1 IROHF=0.

 **********************************************************************

            Population analysis using the SCF density.

 **********************************************************************

 Orbital symmetries:
 Alpha Orbitals:
       Occupied  (A) (A) (A) (A) (A) (A) (A) (A) (A) (A) (A) (A)
       Virtual   (A) (A) (A) (A) (A) (A) (A) (A) (A) (A) (A) (A)
                 (A) (A) (A) (A) (A) (A) (A) (A) (A) (A) (A) (A)
                 (A) (A) (A) (A) (A) (A) (A) (A) (A) (A) (A) (A)
                 (A) (A) (A) (A) (A) (A) (A) (A) (A) (A) (A) (A)
                 (A) (A) (A) (A) (A) (A)
 Beta  Orbitals:
       Occupied  (A) (A) (A) (A) (A) (A) (A) (A) (A) (A) (A)
       Virtual   (A) (A) (A) (A) (A) (A) (A) (A) (A) (A) (A) (A)
                 (A) (A) (A) (A) (A) (A) (A) (A) (A) (A) (A) (A)
                 (A) (A) (A) (A) (A) (A) (A) (A) (A) (A) (A) (A)
                 (A) (A) (A) (A) (A) (A) (A) (A) (A) (A) (A) (A)
                 (A) (A) (A) (A) (A) (A) (A)
 The electronic state is 2-A.
 Alpha  occ. eigenvalues --  -14.48303 -14.46671 -14.41772  -1.11086  -0.97053
 Alpha  occ. eigenvalues --   -0.68084  -0.58618  -0.48616  -0.45556  -0.41617
 Alpha  occ. eigenvalues --   -0.31671  -0.15568
 Alpha virt. eigenvalues --    0.00484   0.02648   0.07400   0.19677   0.33660
 Alpha virt. eigenvalues --    0.35466   0.44246   0.49173   0.52035   0.58198
 Alpha virt. eigenvalues --    0.61044   0.66139   0.69652   0.70484   0.73786
 Alpha virt. eigenvalues --    0.76844   0.83691   0.95878   1.13542   1.27689
 Alpha virt. eigenvalues --    1.36623   1.51299   1.63513   1.65972   1.69547
 Alpha virt. eigenvalues --    1.73861   1.76221   1.88731   1.95141   2.09442
 Alpha virt. eigenvalues --    2.12494   2.26633   2.34109   2.36954   2.49108
 Alpha virt. eigenvalues --    2.50210   2.64346   2.74043   2.86955   3.03952
 Alpha virt. eigenvalues --    3.13980   3.42600   3.57046   3.63286   3.85641
 Alpha virt. eigenvalues --    3.90790   3.92862   4.17295   4.34033   4.62676
 Alpha virt. eigenvalues --    5.18950  35.05691  35.44656  35.96340
  Beta  occ. eigenvalues --  -14.47758 -14.46543 -14.40588  -1.09164  -0.95071
  Beta  occ. eigenvalues --   -0.66664  -0.57560  -0.47760  -0.41761  -0.37588
  Beta  occ. eigenvalues --   -0.30903
  Beta virt. eigenvalues --   -0.02125   0.01758   0.03403   0.08140   0.20681
  Beta virt. eigenvalues --    0.33895   0.35473   0.44519   0.49332   0.52110
  Beta virt. eigenvalues --    0.59126   0.61272   0.66408   0.70431   0.71808
  Beta virt. eigenvalues --    0.74191   0.77359   0.84389   0.96184   1.13559
  Beta virt. eigenvalues --    1.27526   1.36165   1.50471   1.63449   1.65961
  Beta virt. eigenvalues --    1.70337   1.75717   1.77460   1.89762   1.95759
  Beta virt. eigenvalues --    2.12673   2.15077   2.27027   2.32552   2.37907
  Beta virt. eigenvalues --    2.49281   2.50405   2.64852   2.73690   2.87508
  Beta virt. eigenvalues --    3.04399   3.16313   3.42580   3.57967   3.69737
  Beta virt. eigenvalues --    3.86142   3.94352   3.97932   4.16847   4.35242
  Beta virt. eigenvalues --    4.61198   5.18912  35.06789  35.44943  35.97551
     Alpha Molecular Orbital Coefficients:
                           1         2         3         4         5
                           O         O         O         O         O
     Eigenvalues --   -14.48303 -14.46671 -14.41772  -1.11086  -0.97053
   1 1   N  1S          0.55746  -0.00481  -0.00346  -0.09820   0.01564
   2        2S          0.46481  -0.00388  -0.00234  -0.15257   0.02379
   3        2PX        -0.00065  -0.00059   0.00104   0.01652  -0.14715
   4        2PY         0.00074   0.00006   0.00018   0.02640  -0.01008
   5        2PZ        -0.00008  -0.00004   0.00003   0.00094  -0.00317
   6        3S          0.01731  -0.00047  -0.00220   0.42966  -0.06469
   7        3PX         0.00261   0.00174  -0.00491   0.01080  -0.20339
   8        3PY         0.00108  -0.00011  -0.00092   0.03935  -0.01188
   9        3PZ         0.00011   0.00012  -0.00015   0.00105  -0.00398
  10        4S         -0.00658   0.00139   0.00328   0.21617  -0.02586
  11        4PX         0.00068  -0.00485   0.00619  -0.01059  -0.03610
  12        4PY        -0.00104   0.00006   0.00058   0.01621  -0.00579
  13        4PZ        -0.00010  -0.00032   0.00024   0.00169  -0.00037
  14        5D 0       -0.00170   0.00049   0.00120  -0.01262  -0.00132
  15        5D+1        0.00024  -0.00013  -0.00013   0.00104  -0.00059
  16        5D-1        0.00001   0.00001  -0.00003   0.00001  -0.00018
  17        5D+2        0.00285  -0.00081  -0.00187   0.01810   0.00204
  18        5D-2        0.00058   0.00031  -0.00102   0.00144  -0.00835
  19 2   N  1S          0.00330  -0.00017   0.55735  -0.06055   0.06886
  20        2S          0.00338  -0.00013   0.46526  -0.09382   0.10761
  21        2PX        -0.00080  -0.00005  -0.00159  -0.07089   0.06898
  22        2PY        -0.00024   0.00004  -0.00023  -0.01480   0.02027
  23        2PZ        -0.00002  -0.00001  -0.00006  -0.00215   0.00233
  24        3S         -0.00236  -0.00006   0.01648   0.26441  -0.30573
  25        3PX         0.00444   0.00011  -0.00342  -0.09873   0.09555
  26        3PY         0.00121  -0.00016  -0.00085  -0.01884   0.02844
  27        3PZ         0.00013   0.00004  -0.00010  -0.00293   0.00328
  28        4S          0.00029   0.00300  -0.01054   0.10631  -0.16790
  29        4PX        -0.00085  -0.00101   0.00349  -0.01779   0.03142
  30        4PY         0.00014  -0.00051   0.00112  -0.00641   0.00812
  31        4PZ         0.00001  -0.00002   0.00009  -0.00083   0.00069
  32        5D 0        0.00134   0.00001  -0.00103  -0.00798   0.00828
  33        5D+1       -0.00013  -0.00003   0.00011   0.00081  -0.00093
  34        5D-1       -0.00004  -0.00001   0.00002   0.00013  -0.00026
  35        5D+2       -0.00193  -0.00015   0.00168   0.01241  -0.01090
  36        5D-2       -0.00123   0.00015   0.00077   0.00468  -0.00765
  37 3   N  1S          0.00478   0.55762   0.00015  -0.05929  -0.08715
  38        2S          0.00415   0.46488   0.00014  -0.09192  -0.13578
  39        2PX         0.00078   0.00085   0.00014   0.04272   0.02227
  40        2PY        -0.00019  -0.00011   0.00005  -0.00718  -0.01073
  41        2PZ        -0.00004   0.00088  -0.00001   0.01225   0.02292
  42        3S         -0.00028   0.01704  -0.00004   0.25660   0.38113
  43        3PX        -0.00258  -0.00077  -0.00041   0.06907   0.04233
  44        3PY         0.00064  -0.00022  -0.00011  -0.00931  -0.01654
  45        3PZ         0.00026   0.00109   0.00005   0.01816   0.03487
  46        4S          0.00253  -0.00798   0.00267   0.11811   0.25463
  47        4PX         0.00166  -0.00261   0.00145   0.00281   0.01621
  48        4PY         0.00049   0.00100  -0.00041  -0.00494  -0.00386
  49        4PZ         0.00030  -0.00002  -0.00001   0.00740   0.01673
  50        5D 0        0.00051  -0.00091   0.00004  -0.00627  -0.00691
  51        5D+1       -0.00030  -0.00050  -0.00002   0.00169   0.00019
  52        5D-1        0.00013  -0.00008   0.00002  -0.00098  -0.00150
  53        5D+2       -0.00129  -0.00022  -0.00023   0.00807   0.00481
  54        5D-2        0.00062  -0.00009  -0.00020  -0.00155  -0.00380
  55 4   H  1S         -0.00019  -0.00010  -0.00006   0.03153   0.06403
  56        2S         -0.00056  -0.00208   0.00006   0.02843   0.06043
  57        3S          0.00063   0.00112   0.00030  -0.00955  -0.00566
  58        4PX        -0.00008  -0.00095   0.00010   0.00580   0.00796
  59        4PY        -0.00044  -0.00187  -0.00000   0.00640   0.01206
  60        4PZ         0.00011   0.00088   0.00000  -0.00260  -0.00521
  61 5   H  1S         -0.00010   0.00003  -0.00001   0.02758   0.05518
  62        2S         -0.00139  -0.00239  -0.00018   0.02869   0.04999
  63        3S          0.00051   0.00101   0.00036  -0.00855  -0.00277
  64        4PX        -0.00039  -0.00053  -0.00002   0.00434   0.00513
  65        4PY         0.00053   0.00189   0.00006  -0.00708  -0.01236
  66        4PZ         0.00016   0.00074   0.00003  -0.00222  -0.00339
                           6         7         8         9        10
                           O         O         O         O         O
     Eigenvalues --    -0.68084  -0.58618  -0.48616  -0.45556  -0.41617
   1 1   N  1S         -0.05056   0.00268  -0.01026   0.03820   0.00425
   2        2S         -0.08057   0.00462  -0.01644   0.06147   0.00660
   3        2PX        -0.12170  -0.01731  -0.01036  -0.09722  -0.05962
   4        2PY        -0.00902   0.11385   0.01379   0.09195  -0.16994
   5        2PZ        -0.01862  -0.01311   0.20132   0.01522   0.01929
   6        3S          0.24282  -0.01436   0.04952  -0.18899  -0.02342
   7        3PX        -0.17331  -0.02967  -0.01634  -0.13984  -0.08548
   8        3PY        -0.01050   0.17448   0.02156   0.13788  -0.25400
   9        3PZ        -0.02956  -0.02034   0.30842   0.02312   0.02898
  10        4S          0.22550   0.00237   0.04752  -0.23230  -0.03345
  11        4PX        -0.09078   0.02712   0.01503  -0.08217  -0.04361
  12        4PY        -0.00684   0.11728   0.01563   0.10286  -0.21655
  13        4PZ        -0.00819  -0.01174   0.23027   0.02010   0.02772
  14        5D 0       -0.00289  -0.00182  -0.00011  -0.00359   0.00403
  15        5D+1        0.00347   0.00120   0.00064   0.00100   0.00320
  16        5D-1       -0.00124  -0.00043   0.01103   0.00110   0.00061
  17        5D+2        0.00512  -0.01431  -0.00158  -0.00499   0.01435
  18        5D-2       -0.00256  -0.01331  -0.00105   0.00833  -0.02147
  19 2   N  1S          0.03999   0.00645   0.01305  -0.06891  -0.03489
  20        2S          0.06347   0.00987   0.02081  -0.10984  -0.05569
  21        2PX         0.00875  -0.01292  -0.02651   0.13975   0.15736
  22        2PY         0.00783   0.04805   0.00422   0.12967  -0.12406
  23        2PZ        -0.00427  -0.00548   0.12425   0.01810   0.02424
  24        3S         -0.18535  -0.02720  -0.06031   0.31159   0.15542
  25        3PX         0.01355  -0.02216  -0.03642   0.18716   0.22107
  26        3PY         0.01190   0.07258   0.00745   0.18874  -0.18797
  27        3PZ        -0.00689  -0.00902   0.19088   0.02673   0.03610
  28        4S         -0.14298  -0.06983  -0.09664   0.48069   0.28639
  29        4PX         0.00580   0.00835  -0.01330   0.09682   0.13446
  30        4PY         0.00192   0.03650   0.00670   0.12294  -0.13586
  31        4PZ        -0.00474  -0.00260   0.11134   0.01656   0.02444
  32        5D 0        0.00216  -0.00156  -0.00285   0.00904   0.00811
  33        5D+1        0.00182   0.00194  -0.03028  -0.00371  -0.00494
  34        5D-1        0.00036   0.00001  -0.00641  -0.00143  -0.00027
  35        5D+2       -0.00152   0.00774   0.00406  -0.00813  -0.02356
  36        5D-2       -0.00244  -0.01179  -0.00090  -0.02492   0.02051
  37 3   N  1S          0.04021  -0.00199   0.01851  -0.00551  -0.00218
  38        2S          0.06315  -0.00330   0.02966  -0.00896  -0.00334
  39        2PX         0.17153   0.05510   0.02218   0.04983   0.04035
  40        2PY        -0.04794   0.19796   0.01188  -0.05682   0.07890
  41        2PZ        -0.04290  -0.02028   0.13532   0.00819  -0.00476
  42        3S         -0.17215   0.01114  -0.09153   0.03120   0.00894
  43        3PX         0.25248   0.08690   0.02983   0.07844   0.05579
  44        3PY        -0.06931   0.29180   0.01753  -0.08181   0.11174
  45        3PZ        -0.06424  -0.03050   0.20885   0.01350  -0.00530
  46        4S         -0.20968   0.02657  -0.06331   0.02418   0.03595
  47        4PX         0.10815   0.05640   0.04118   0.05433   0.06001
  48        4PY        -0.02925   0.16864   0.00380  -0.04989   0.08327
  49        4PZ        -0.03917  -0.01717   0.16698   0.00987  -0.00335
  50        5D 0       -0.00582  -0.00287   0.00904  -0.00090  -0.00082
  51        5D+1        0.00927   0.00269   0.02231   0.00470   0.00366
  52        5D-1       -0.00180   0.01633  -0.00306  -0.00453   0.00670
  53        5D+2        0.01868   0.00804   0.00016   0.00671  -0.00372
  54        5D-2       -0.00805   0.00466   0.00113   0.00606  -0.01704
  55 4   H  1S         -0.08324  -0.14073   0.00357   0.02678  -0.08052
  56        2S         -0.08987  -0.17914  -0.01222   0.04335  -0.12663
  57        3S         -0.01822  -0.03856   0.00192   0.00811  -0.04621
  58        4PX         0.00449  -0.01099   0.00199   0.00532  -0.00229
  59        4PY        -0.01424  -0.00812   0.00069   0.00117  -0.00592
  60        4PZ         0.00231   0.00797   0.01120  -0.00220   0.00479
  61 5   H  1S         -0.11753   0.10701   0.01168  -0.05553   0.05951
  62        2S         -0.13890   0.14117   0.00699  -0.09122   0.09180
  63        3S         -0.02516   0.03183   0.00742  -0.02654   0.04370
  64        4PX         0.00041   0.01207   0.00257   0.00008   0.00410
  65        4PY         0.01914  -0.00905  -0.00188   0.00477  -0.00223
  66        4PZ         0.00501  -0.00818   0.00841   0.00344  -0.00311
                          11        12        13        14        15
                           O         O         V         V         V
     Eigenvalues --    -0.31671  -0.15568   0.00484   0.02648   0.07400
   1 1   N  1S         -0.00487  -0.02511  -0.00118  -0.00272   0.00279
   2        2S         -0.00805  -0.04054  -0.00236  -0.00460   0.00416
   3        2PX        -0.01527  -0.02399  -0.00353  -0.01983  -0.01160
   4        2PY        -0.00503  -0.18410   0.03124   0.04541   0.03890
   5        2PZ        -0.07482  -0.00517  -0.19749   0.11608   0.02279
   6        3S          0.02815   0.10629   0.01620   0.01331  -0.00267
   7        3PX        -0.02399  -0.02677  -0.02458  -0.05645  -0.01782
   8        3PY        -0.00670  -0.27238   0.04621   0.06812   0.06547
   9        3PZ        -0.11157  -0.00714  -0.29750   0.17577   0.03383
  10        4S         -0.00789   0.32432  -0.09286  -0.02350  -0.11126
  11        4PX         0.04261  -0.13247   0.20872   0.16234  -0.00327
  12        4PY        -0.01209  -0.36584   0.07826   0.10541   0.11450
  13        4PZ        -0.11483  -0.01084  -0.46583   0.29263   0.06489
  14        5D 0       -0.00251   0.01061   0.00250   0.00565  -0.00354
  15        5D+1       -0.04257  -0.00029   0.02297  -0.00851   0.00013
  16        5D-1       -0.00367   0.00158   0.00206  -0.00410   0.00321
  17        5D+2        0.00104  -0.01644  -0.00703  -0.01383   0.01018
  18        5D-2       -0.00197   0.03189  -0.00426  -0.00671   0.00647
  19 2   N  1S         -0.00081   0.00846   0.00306   0.00705  -0.00227
  20        2S         -0.00131   0.01469   0.00486   0.01153  -0.00376
  21        2PX         0.02037  -0.00676   0.00961   0.03687  -0.00698
  22        2PY        -0.00267   0.23826  -0.02873  -0.03508  -0.04841
  23        2PZ        -0.16815   0.00371   0.19227  -0.11042  -0.02052
  24        3S          0.00302  -0.06505  -0.01802  -0.04701   0.01664
  25        3PX         0.02936  -0.00791   0.01250   0.05018  -0.00970
  26        3PY        -0.00365   0.34362  -0.04085  -0.04959  -0.07186
  27        3PZ        -0.25062   0.00510   0.27026  -0.15650  -0.02875
  28        4S         -0.01619   0.08117  -0.14358  -0.15383   0.00409
  29        4PX         0.03305  -0.08215   0.06415   0.11433  -0.00224
  30        4PY         0.00233   0.43980  -0.04569  -0.06568  -0.10606
  31        4PZ        -0.21915   0.00542   0.46662  -0.26992  -0.05420
  32        5D 0        0.00189   0.00150  -0.00019  -0.00148   0.00073
  33        5D+1        0.02314  -0.00014   0.00764  -0.00517  -0.00179
  34        5D-1        0.00507   0.00010   0.00279  -0.00226   0.00040
  35        5D+2       -0.00188  -0.00299   0.00182   0.00360  -0.00040
  36        5D-2       -0.00048  -0.00512  -0.00167  -0.00261  -0.00362
  37 3   N  1S          0.02350   0.02569   0.03240   0.03741   0.00940
  38        2S          0.03790   0.04153   0.05152   0.05896   0.01485
  39        2PX         0.03451  -0.06056   0.04772   0.03310   0.01099
  40        2PY         0.00987   0.01621  -0.00082   0.02662  -0.16615
  41        2PZ         0.22279  -0.01167   0.05827  -0.10048  -0.01760
  42        3S         -0.11861  -0.12762  -0.13787  -0.15177  -0.03588
  43        3PX         0.04756  -0.10521   0.05901   0.02242   0.02341
  44        3PY         0.01466   0.02032  -0.00332   0.02816  -0.18832
  45        3PZ         0.32853  -0.02032   0.07243  -0.14165  -0.02968
  46        4S         -0.09670  -0.38307  -0.48165  -0.71550  -0.21245
  47        4PX         0.08258  -0.10519   0.26869   0.26832   0.01596
  48        4PY         0.00681  -0.01904  -0.04133   0.10594  -0.70279
  49        4PZ         0.38528  -0.04132   0.14555  -0.28962  -0.04621
  50        5D 0        0.01091  -0.00290  -0.00116  -0.00568  -0.00242
  51        5D+1        0.00414  -0.00265  -0.02358   0.01319   0.00364
  52        5D-1       -0.00028   0.00370   0.00300  -0.00356   0.00004
  53        5D+2       -0.00009  -0.00588   0.00084   0.00079  -0.00275
  54        5D-2       -0.00128  -0.02753   0.00533   0.00966  -0.01142
  55 4   H  1S          0.02868  -0.03421   0.06081   0.04595  -0.02471
  56        2S          0.01726  -0.07774   0.07695   0.00046   0.02711
  57        3S          0.01890   0.00219   0.53929   1.12223  -1.21112
  58        4PX         0.00446  -0.00016  -0.01096  -0.01253   0.00905
  59        4PY         0.00418  -0.00118  -0.00127  -0.01709   0.01154
  60        4PZ         0.01916   0.00096   0.01211  -0.00057  -0.01186
  61 5   H  1S          0.03417   0.06963   0.03616   0.00458   0.03942
  62        2S          0.03236   0.17715   0.10347  -0.02547   0.04791
  63        3S          0.02493   0.25394   0.36185   0.41786   1.56930
  64        4PX         0.00271  -0.00612  -0.00334  -0.00676  -0.00994
  65        4PY        -0.00319  -0.00326  -0.00003   0.01154   0.02345
  66        4PZ         0.01669  -0.00260   0.01146  -0.00716   0.00875
                          16        17        18        19        20
                           V         V         V         V         V
     Eigenvalues --     0.19677   0.33660   0.35466   0.44246   0.49173
   1 1   N  1S         -0.07005  -0.00358   0.01715  -0.00565   0.03927
   2        2S         -0.11432  -0.00241   0.02891  -0.00492   0.07506
   3        2PX        -0.11059   0.04906   0.04130   0.13944  -0.08737
   4        2PY         0.09408  -0.06033  -0.05908   0.05722   0.05234
   5        2PZ        -0.01545   0.00724  -0.03729  -0.00515  -0.01210
   6        3S          0.31503  -0.08884  -0.10574  -0.11136  -0.51933
   7        3PX        -0.18271   0.09579   0.00933   0.24026  -0.09959
   8        3PY         0.15498  -0.10725  -0.11507   0.09320   0.13373
   9        3PZ        -0.01462   0.00374  -0.06485  -0.03640  -0.02648
  10        4S          2.15754   0.33936  -0.29162   1.31586  -2.00917
  11        4PX        -0.63251   0.29888   1.14584   3.87481  -1.41430
  12        4PY         0.44462  -0.30006  -0.09153   0.45930  -0.45633
  13        4PZ        -0.11483   0.13526  -0.14308   0.18242   0.02253
  14        5D 0        0.02398   0.01008   0.01073   0.02140   0.01733
  15        5D+1       -0.00529  -0.00262  -0.01053   0.00269  -0.00869
  16        5D-1        0.00093  -0.01388   0.00236   0.00975   0.00177
  17        5D+2       -0.03947  -0.03017   0.00627  -0.02755  -0.03042
  18        5D-2       -0.00876  -0.02284  -0.01760   0.00897   0.01654
  19 2   N  1S          0.03118   0.02591   0.00577   0.04815  -0.00335
  20        2S          0.05208   0.04587   0.01047   0.08132   0.00358
  21        2PX         0.13535   0.06237  -0.01129   0.05096   0.05927
  22        2PY        -0.02445   0.00518   0.00485  -0.00968  -0.02024
  23        2PZ         0.01299   0.00636   0.00701  -0.00955   0.00667
  24        3S         -0.19339  -0.22137  -0.06254  -0.25788  -0.24684
  25        3PX         0.19424   0.11380   0.00617   0.06075   0.30992
  26        3PY        -0.01957  -0.04000  -0.01598  -0.04360   0.02365
  27        3PZ         0.01671   0.02656  -0.00830  -0.03862   0.02189
  28        4S         -0.32637  -0.23967  -0.69419  -3.80283   2.49028
  29        4PX         0.46155   0.16428   0.20668   2.26747  -1.98708
  30        4PY        -0.18420   0.27056   0.24683   0.70416  -0.47158
  31        4PZ         0.06139  -0.06585   0.12198   0.10459  -0.08963
  32        5D 0        0.00113  -0.00515  -0.00121  -0.00062   0.01549
  33        5D+1        0.00081  -0.00012   0.00634   0.00320   0.00140
  34        5D-1        0.00025  -0.00109   0.00408   0.00147  -0.00156
  35        5D+2        0.00893  -0.00359  -0.00683   0.00700  -0.01315
  36        5D-2       -0.00908   0.00915   0.00811  -0.00635  -0.03697
  37 3   N  1S          0.04030   0.01467  -0.04267  -0.00997   0.00982
  38        2S          0.06601   0.02744  -0.07142  -0.01133   0.02117
  39        2PX        -0.20986  -0.01338  -0.02339  -0.07684  -0.13716
  40        2PY         0.01014   0.10285   0.03982  -0.06396  -0.04855
  41        2PZ         0.01243  -0.02030   0.06136  -0.02647   0.02344
  42        3S         -0.19747  -0.14434   0.17449  -0.13374  -0.16426
  43        3PX        -0.27976  -0.09553  -0.08260  -0.32761  -0.49169
  44        3PY         0.01982   0.23277   0.09137  -0.10190  -0.10767
  45        3PZ         0.01638  -0.04052   0.14591  -0.07150   0.07258
  46        4S         -0.99419  -0.02666   1.87857   2.74835  -0.27280
  47        4PX        -1.33832   0.65077   0.07348   2.01599   0.63042
  48        4PY         0.14694   0.89719   0.08314  -1.28688   0.29523
  49        4PZ         0.05605  -0.24742   0.52517   0.26972  -0.14115
  50        5D 0       -0.01166  -0.00072   0.02250   0.00716   0.01057
  51        5D+1       -0.00892  -0.00142  -0.00576  -0.00744   0.00307
  52        5D-1        0.00216  -0.01019  -0.00466   0.00452   0.01268
  53        5D+2        0.03478  -0.01303   0.00638  -0.01756  -0.01431
  54        5D-2        0.00130   0.01961   0.00958   0.02719  -0.00182
  55 4   H  1S         -0.00049   0.11788  -0.06661  -0.02116  -0.02952
  56        2S         -0.05203   1.67789  -1.08568  -0.90158  -0.09320
  57        3S         -0.28168  -0.92354   0.29992   0.40003   0.27432
  58        4PX        -0.02810   0.01268  -0.03859  -0.03161   0.03605
  59        4PY         0.01638   0.02038   0.01449  -0.02508   0.02027
  60        4PZ        -0.00426   0.00642   0.03710  -0.00797  -0.02293
  61 5   H  1S         -0.01073  -0.05443  -0.13040   0.01205   0.01649
  62        2S         -0.16949  -0.69754  -1.73282   0.57922   0.08888
  63        3S         -0.17138   0.52017   0.89900  -0.00235  -0.17887
  64        4PX        -0.02692   0.01896  -0.01957   0.02166  -0.01121
  65        4PY        -0.00749   0.02903   0.00949  -0.00964  -0.00055
  66        4PZ         0.00084  -0.02072   0.02395   0.02363   0.01194
                          21        22        23        24        25
                           V         V         V         V         V
     Eigenvalues --     0.52035   0.58198   0.61044   0.66139   0.69652
   1 1   N  1S         -0.00422  -0.01546   0.00005   0.01827  -0.00235
   2        2S         -0.00873  -0.02917  -0.00077   0.03502  -0.00234
   3        2PX        -0.03479  -0.02856  -0.02312   0.01039   0.00523
   4        2PY        -0.01775  -0.11663   0.00273  -0.03173  -0.14668
   5        2PZ        -0.10483   0.02272   0.07504  -0.02683   0.08760
   6        3S          0.07135   0.18526   0.01964  -0.20905  -0.05733
   7        3PX        -0.06683  -0.05652  -0.08774  -0.16384  -0.04407
   8        3PY        -0.05246  -0.48504   0.03103  -0.09686  -0.52025
   9        3PZ        -0.41464   0.08633   0.29159  -0.09679   0.28916
  10        4S         -0.50432  -0.29155  -0.42022   0.64842   0.20316
  11        4PX        -0.10295   0.32614   0.85958   0.04326   1.37131
  12        4PY        -0.00547   0.69753  -0.00499  -0.19030   1.53753
  13        4PZ         0.35067  -0.14375  -0.58421   0.20975  -0.63237
  14        5D 0        0.00451   0.01250   0.01074  -0.00655   0.02107
  15        5D+1        0.00898   0.01110   0.06166   0.00605  -0.00876
  16        5D-1       -0.01357   0.00506   0.01301  -0.01767   0.01786
  17        5D+2        0.00042   0.02268  -0.00921   0.01046  -0.00774
  18        5D-2       -0.00038  -0.01677  -0.00161   0.01369   0.00664
  19 2   N  1S         -0.00999  -0.00801  -0.00398   0.03954   0.00448
  20        2S         -0.01733  -0.01490  -0.00716   0.07595   0.00861
  21        2PX         0.00467   0.03866  -0.00919  -0.06556   0.00560
  22        2PY        -0.00029  -0.16452   0.04000   0.05715   0.13302
  23        2PZ        -0.09586   0.02659   0.15026   0.02943  -0.08176
  24        3S          0.06096   0.06933   0.02601  -0.51434  -0.06978
  25        3PX         0.04560   0.15504   0.00045  -0.23817   0.06505
  26        3PY         0.00403  -0.57315   0.14236   0.16228   0.46435
  27        3PZ        -0.35798   0.09583   0.52897   0.10094  -0.28015
  28        4S          0.30728  -0.23689  -0.45847   0.36902  -1.21007
  29        4PX        -0.35795  -0.21509   0.08356   0.24750   0.45097
  30        4PY        -0.07480   0.68911  -0.12890  -0.16750  -0.95295
  31        4PZ         0.40566  -0.09964  -0.61652  -0.21066   0.63582
  32        5D 0        0.00225  -0.00007  -0.00041  -0.00579   0.01072
  33        5D+1        0.02959  -0.00808  -0.03453   0.00074  -0.00143
  34        5D-1        0.01031  -0.00039  -0.00300  -0.00351   0.00224
  35        5D+2       -0.00278  -0.01594   0.00082  -0.00693  -0.00614
  36        5D-2        0.00049   0.04098  -0.00760   0.00053  -0.00690
  37 3   N  1S         -0.00476   0.00900  -0.00951  -0.00916   0.00623
  38        2S         -0.00861   0.01658  -0.01617  -0.01797   0.01283
  39        2PX        -0.01492  -0.02174  -0.01326   0.04162   0.01823
  40        2PY         0.01088  -0.06660   0.02964  -0.20909   0.00708
  41        2PZ        -0.17546  -0.01743  -0.14534  -0.00619   0.00319
  42        3S          0.01609  -0.11134   0.01636   0.15799  -0.14011
  43        3PX        -0.03527  -0.03221  -0.05512   0.11692   0.01220
  44        3PY         0.01015  -0.21710   0.08562  -0.63083   0.01302
  45        3PZ        -0.60896  -0.04996  -0.50488  -0.04211   0.03992
  46        4S          0.35387   0.35531   1.04860  -0.38483   0.93810
  47        4PX        -0.05833   0.09751   0.34201  -0.31065   0.39853
  48        4PY         0.02426  -0.00592  -0.38285   1.99022  -1.10182
  49        4PZ         0.85201   0.14437   1.10336  -0.06869   0.18033
  50        5D 0       -0.02062  -0.01425  -0.00708   0.00266   0.00579
  51        5D+1       -0.03443  -0.00359  -0.02969  -0.00245  -0.00489
  52        5D-1        0.00067   0.01042  -0.00251   0.01123   0.00823
  53        5D+2        0.00563   0.00285   0.00826  -0.01796  -0.01187
  54        5D-2       -0.00323  -0.02211   0.01164  -0.05737   0.03758
  55 4   H  1S          0.01558  -0.01853   0.01184  -0.02621   0.03730
  56        2S         -0.07935  -0.26366  -0.35071   0.50197  -0.46896
  57        3S         -0.18188   0.47273  -0.13306   0.69893   0.09637
  58        4PX        -0.03809  -0.04276  -0.07899   0.09164  -0.14704
  59        4PY        -0.02851   0.00923  -0.01659   0.10876  -0.02701
  60        4PZ         0.01067  -0.02183   0.03156  -0.02714  -0.02183
  61 5   H  1S          0.00241   0.02591  -0.01039   0.02584  -0.00792
  62        2S         -0.16210   0.25790  -0.22895  -0.35183   0.41446
  63        3S         -0.08423  -0.54361   0.19206  -0.86799  -0.01540
  64        4PX        -0.01796   0.00515  -0.03305  -0.06019   0.08754
  65        4PY         0.02376   0.01903  -0.00346   0.10182  -0.00839
  66        4PZ        -0.00082   0.02867   0.02962   0.00653   0.06183
                          26        27        28        29        30
                           V         V         V         V         V
     Eigenvalues --     0.70484   0.73786   0.76844   0.83691   0.95878
   1 1   N  1S          0.04358  -0.02151   0.04248  -0.02800  -0.00840
   2        2S          0.08378  -0.04361   0.08538  -0.05442  -0.02099
   3        2PX        -0.11027   0.07762   0.17425   0.07628  -0.22761
   4        2PY         0.03554   0.07707   0.01760   0.03780   0.02109
   5        2PZ         0.08211   0.14336  -0.01119  -0.03291  -0.02442
   6        3S         -0.51846   0.32187  -0.70710   0.33799   0.28444
   7        3PX        -0.46924   0.18919   0.44802  -0.26152  -0.46612
   8        3PY         0.13743   0.29405   0.07243   0.13460   0.12586
   9        3PZ         0.27163   0.49947  -0.04184  -0.15403  -0.07795
  10        4S          0.36239  -0.39729   1.65421   0.14620  -0.77441
  11        4PX         1.49103  -0.04504  -0.46042   4.70000   5.80386
  12        4PY        -0.29685  -0.99539   0.10927   0.00261  -0.43162
  13        4PZ        -0.66186  -1.27793  -0.00993   0.66266   0.38151
  14        5D 0       -0.00193  -0.01164   0.01923  -0.00111   0.00331
  15        5D+1       -0.00291  -0.01508   0.00488   0.02167   0.00437
  16        5D-1        0.00737  -0.00575   0.00947   0.00471   0.01384
  17        5D+2        0.00069   0.00032  -0.00182  -0.01227   0.00154
  18        5D-2       -0.03486  -0.00919  -0.03584  -0.10355   0.02041
  19 2   N  1S          0.05000  -0.02429   0.02140   0.01410  -0.05300
  20        2S          0.09909  -0.04931   0.04145   0.02239  -0.10382
  21        2PX        -0.12907   0.11244   0.10670   0.16327  -0.11344
  22        2PY        -0.09299   0.00490   0.01034   0.04797  -0.00342
  23        2PZ        -0.07462  -0.09731   0.01843   0.02028  -0.00046
  24        3S         -0.76105   0.40408  -0.22821  -0.09070   0.74006
  25        3PX        -0.30346   0.29043   0.37376   0.51297  -0.11781
  26        3PY        -0.29384  -0.03442   0.02022   0.07281  -0.00195
  27        3PZ        -0.25357  -0.34660   0.05571   0.08272   0.00959
  28        4S         -0.08302  -0.25922  -0.14102  -3.53833  -4.75625
  29        4PX         0.26432  -0.28115  -0.15468   0.71975   1.74515
  30        4PY         0.62983   0.42399   0.05840   0.68866   0.93786
  31        4PZ         0.58656   0.93592  -0.06848  -0.26876  -0.03138
  32        5D 0        0.01759  -0.02242   0.01379  -0.01862   0.01523
  33        5D+1       -0.00340   0.00511   0.00040  -0.00974  -0.00602
  34        5D-1        0.00279   0.00387   0.00372  -0.00320  -0.00094
  35        5D+2       -0.03626   0.02000  -0.01673   0.00229  -0.06279
  36        5D-2       -0.00835   0.02149   0.00735   0.05952   0.00737
  37 3   N  1S          0.00040  -0.01126   0.04726  -0.04601   0.07528
  38        2S          0.00036  -0.02070   0.09427  -0.08927   0.14798
  39        2PX         0.03750   0.00693   0.20544   0.05859  -0.06721
  40        2PY         0.05763  -0.09027  -0.03102  -0.01621  -0.01524
  41        2PZ        -0.02249  -0.03220  -0.03182   0.03710  -0.00687
  42        3S          0.01099   0.09117  -0.82134   0.62822  -1.30788
  43        3PX         0.10461   0.02621   0.42769   0.30749  -0.13533
  44        3PY         0.18628  -0.26713  -0.02936   0.01703  -0.08817
  45        3PZ        -0.06394  -0.13069  -0.01204   0.11344   0.15087
  46        4S          0.91250   0.25009   1.48653   1.91282   6.69494
  47        4PX         0.09661   0.12009  -1.47840   1.36324   2.30915
  48        4PY        -0.59376   1.29734  -0.14478  -1.05223  -0.49562
  49        4PZ         0.35727   0.59198   0.40824  -0.34207   0.24651
  50        5D 0       -0.01222   0.00248   0.03144  -0.03312  -0.02426
  51        5D+1       -0.01089  -0.00791  -0.03064   0.00655  -0.03098
  52        5D-1        0.00607  -0.00149   0.01505   0.03288   0.01576
  53        5D+2       -0.00130   0.00576  -0.08773   0.04968   0.03131
  54        5D-2        0.01875  -0.02035   0.06046   0.07470   0.01906
  55 4   H  1S          0.02044  -0.00415   0.03176   0.05038   0.06217
  56        2S         -0.12242   0.21768  -0.68277  -0.10777  -0.72358
  57        3S         -0.31223   0.30872  -0.64165   0.18259  -0.06648
  58        4PX        -0.07062   0.02954  -0.04846  -0.12605  -0.24044
  59        4PY        -0.03447   0.07302  -0.16193   0.04609  -0.08929
  60        4PZ        -0.00232   0.02111   0.08192  -0.14120   0.09888
  61 5   H  1S          0.02149   0.00013   0.01669   0.00208   0.02201
  62        2S          0.10725  -0.58267  -0.28661   0.61610  -0.53446
  63        3S          0.11486  -0.20915  -0.56967   0.30247  -0.11474
  64        4PX        -0.04151  -0.09340  -0.01273   0.04057  -0.00393
  65        4PY        -0.02578   0.04748   0.13692  -0.05742   0.16817
  66        4PZ         0.01080   0.00845   0.12008   0.01968   0.18017
                          31        32        33        34        35
                           V         V         V         V         V
     Eigenvalues --     1.13542   1.27689   1.36623   1.51299   1.63513
   1 1   N  1S          0.07948  -0.02355  -0.01481   0.00038   0.00560
   2        2S          0.15664  -0.04634  -0.02958   0.00017   0.00990
   3        2PX        -0.09331   0.01130   0.06628  -0.01710   0.02198
   4        2PY        -0.04530   0.02642   0.01991  -0.01796  -0.04943
   5        2PZ        -0.00322  -0.00518   0.00699   0.00470  -0.00876
   6        3S         -1.38092   0.43577   0.33050   0.01496  -0.02015
   7        3PX         0.02446   0.04690   0.26596  -0.03385   0.14830
   8        3PY        -0.01173   0.07824   0.09236  -0.02455  -0.01843
   9        3PZ        -0.00213   0.07981  -0.05169   0.00923   0.00508
  10        4S          6.56090  -2.10865  -2.69338   0.20249  -1.19368
  11        4PX         0.73842  -2.10472  -5.37364   0.30838  -2.02876
  12        4PY         0.79438  -0.70282  -1.02187  -0.18702  -0.09748
  13        4PZ         0.02100  -0.56021   0.10877  -0.00014   0.13513
  14        5D 0       -0.11163  -0.06410  -0.02656  -0.09295   0.00104
  15        5D+1        0.02012  -0.20734   0.22848   0.00052  -0.29155
  16        5D-1        0.01617   0.08878  -0.02067  -0.08304  -0.16095
  17        5D+2        0.13957  -0.09297  -0.10937  -0.01595   0.00852
  18        5D-2        0.03967  -0.03704  -0.03232  -0.03337  -0.27098
  19 2   N  1S         -0.06735   0.01729   0.02246  -0.00757   0.00172
  20        2S         -0.13087   0.03470   0.04625  -0.01484   0.00290
  21        2PX        -0.11576   0.00405  -0.00652  -0.01656  -0.03690
  22        2PY        -0.04178   0.00303  -0.01383   0.02088   0.03021
  23        2PZ        -0.00254   0.03678  -0.03469  -0.00082   0.04903
  24        3S          1.10735  -0.33476  -0.46224   0.12958  -0.07903
  25        3PX         0.02493  -0.10532  -0.18852  -0.02058  -0.14818
  26        3PY        -0.01971  -0.03261  -0.06282   0.03053   0.02507
  27        3PZ         0.00266   0.04180  -0.05521  -0.00064   0.06926
  28        4S         -4.40076   2.93647   5.77244  -0.44838   2.11358
  29        4PX         2.14126  -1.22734  -2.25041   0.21168  -0.77251
  30        4PY         0.37704  -0.20653  -0.58038   0.06128  -0.32346
  31        4PZ         0.05826   0.14254  -0.18307   0.02222  -0.10963
  32        5D 0        0.07963  -0.03765  -0.05510  -0.05416   0.00488
  33        5D+1       -0.01045   0.10769  -0.11344   0.02258   0.22577
  34        5D-1       -0.00066   0.06463  -0.05570  -0.02863  -0.00471
  35        5D+2       -0.09844   0.00805   0.04321  -0.04463  -0.08123
  36        5D-2       -0.07226   0.02180  -0.01023   0.02991   0.12634
  37 3   N  1S         -0.02568   0.01522  -0.00390   0.00528  -0.01269
  38        2S         -0.05176   0.03182  -0.00838   0.01051  -0.02477
  39        2PX         0.01364  -0.03636  -0.00475  -0.00920  -0.02598
  40        2PY        -0.01833  -0.01054  -0.01740  -0.00326   0.02934
  41        2PZ         0.01373  -0.02454   0.02639   0.00002  -0.01019
  42        3S          0.60611  -0.31321   0.15457  -0.07460   0.17546
  43        3PX         0.00216  -0.00115  -0.03858  -0.03626  -0.16576
  44        3PY        -0.01950  -0.05994  -0.06572  -0.14825   0.20485
  45        3PZ        -0.05805  -0.07068  -0.00190   0.00762   0.04209
  46        4S         -2.77125   0.11014  -3.34548   0.23268  -1.50087
  47        4PX        -1.06344  -0.73889  -0.95754   0.18409   0.25101
  48        4PY         0.09972   0.78456   1.38395   1.06386  -0.08135
  49        4PZ        -0.13543   0.68750  -0.49159  -0.03198  -0.39909
  50        5D 0       -0.02902  -0.13620   0.01865  -0.02684   0.14342
  51        5D+1        0.01674   0.26032  -0.19542  -0.01293   0.14522
  52        5D-1        0.05078   0.06720   0.17557   0.05376  -0.10012
  53        5D+2       -0.00972  -0.07497   0.08235   0.00579   0.24640
  54        5D-2        0.09184   0.09505   0.10274  -0.06492   0.22521
  55 4   H  1S         -0.00561  -0.01581  -0.02529  -0.07931  -0.02745
  56        2S          0.45050  -0.24716   0.78611   0.61455   0.32825
  57        3S         -0.04824  -0.01600  -0.02633  -0.00961   0.08687
  58        4PX        -0.11100   0.00447  -0.35910   0.33802  -0.17195
  59        4PY         0.08462  -0.24682   0.25067  -0.53328   0.17362
  60        4PZ        -0.28700  -0.53840  -0.19332  -0.37035  -0.06037
  61 5   H  1S         -0.06508  -0.02855  -0.04711   0.06890  -0.45364
  62        2S          0.45335  -0.71614  -0.08567  -0.62752   1.09273
  63        3S         -0.04403  -0.10916  -0.12067   0.01426  -0.34710
  64        4PX         0.15717   0.40634   0.22523  -0.42869  -0.43836
  65        4PY        -0.04436   0.21423  -0.14033  -0.48841   0.16523
  66        4PZ        -0.01677  -0.10160   0.52226   0.42650   0.17396
                          36        37        38        39        40
                           V         V         V         V         V
     Eigenvalues --     1.65972   1.69547   1.73861   1.76221   1.88731
   1 1   N  1S         -0.00117  -0.00500   0.00161   0.00431  -0.00971
   2        2S         -0.00342  -0.00890   0.00346   0.00748  -0.02074
   3        2PX        -0.00377  -0.06840  -0.02754   0.06168   0.01212
   4        2PY        -0.03208  -0.04040  -0.05577  -0.00059  -0.03391
   5        2PZ        -0.00589   0.03607  -0.03081   0.00802   0.03347
   6        3S          0.12232   0.00089  -0.08679  -0.00576   0.21665
   7        3PX         0.10389  -0.13939  -0.07142   0.03613  -0.05054
   8        3PY        -0.02619  -0.04101  -0.04817  -0.03924  -0.00107
   9        3PZ        -0.01077   0.03646  -0.03237   0.00343  -0.00517
  10        4S         -1.79212   1.28260   1.16557  -0.80614  -1.13711
  11        4PX         0.19020   0.40364  -0.11943   1.90597   0.79273
  12        4PY        -0.02369   0.37947   0.28386  -0.01096  -0.29417
  13        4PZ        -0.19553  -0.11627   0.08797   0.17043   0.27527
  14        5D 0       -0.06227  -0.17821  -0.36687  -0.41108   0.06600
  15        5D+1        0.27648   0.07816  -0.00564  -0.09540  -0.24486
  16        5D-1        0.11597  -0.45886   0.44871  -0.18345   0.07194
  17        5D+2       -0.08755  -0.16666  -0.24070  -0.23942  -0.03365
  18        5D-2       -0.22447  -0.01514  -0.07923   0.15721   0.22984
  19 2   N  1S         -0.00016  -0.00694  -0.00545   0.00409   0.00094
  20        2S         -0.00081  -0.01516  -0.01179   0.00892   0.00226
  21        2PX        -0.02626  -0.00125  -0.00022   0.02810   0.00863
  22        2PY         0.03956  -0.01964  -0.02065  -0.01911  -0.03898
  23        2PZ        -0.04321   0.00148  -0.01921   0.03180   0.04572
  24        3S         -0.03461   0.13248   0.10589  -0.05212  -0.02925
  25        3PX        -0.08551  -0.02089  -0.01669   0.11275   0.01105
  26        3PY         0.04009  -0.03387  -0.02921  -0.01046  -0.04738
  27        3PZ        -0.06476   0.00127  -0.02165   0.04177   0.05891
  28        4S          0.56060  -0.89175  -0.44689  -1.19070  -0.13689
  29        4PX        -0.24478   0.40463   0.24300   0.35998  -0.03199
  30        4PY        -0.11177   0.06804   0.00764   0.19376   0.17219
  31        4PZ         0.06297   0.06434  -0.00563  -0.05448  -0.15034
  32        5D 0       -0.09584  -0.08091  -0.27475  -0.38126   0.13165
  33        5D+1       -0.22270   0.11698  -0.17958   0.19528   0.17853
  34        5D-1        0.00943  -0.30537   0.32759  -0.12835   0.38164
  35        5D+2       -0.11105  -0.05497  -0.10867  -0.09261   0.19104
  36        5D-2        0.12436  -0.09122  -0.18541  -0.24919  -0.20714
  37 3   N  1S          0.03702   0.00506  -0.01871   0.00877   0.01115
  38        2S          0.07790   0.00869  -0.04001   0.02224   0.01825
  39        2PX         0.01692  -0.02306  -0.03041   0.06940   0.11093
  40        2PY         0.01925   0.05454   0.02422  -0.04805   0.07540
  41        2PZ         0.05749  -0.02842  -0.02683   0.01760  -0.07147
  42        3S         -0.72901   0.02362   0.38338  -0.32364  -0.12147
  43        3PX        -0.00958   0.12311  -0.03124   0.05130   0.08958
  44        3PY         0.08230   0.21492   0.03209   0.01057   0.03466
  45        3PZ        -0.02191  -0.08004   0.01679   0.01450   0.01081
  46        4S          1.92420  -0.22056  -1.03947   2.03061   1.17363
  47        4PX         0.71598  -0.84758  -0.52030   1.31477   0.73976
  48        4PY        -0.47935  -0.39064  -0.09878  -0.48228   0.03196
  49        4PZ         0.66152   0.07478  -0.34487   0.10476  -0.06616
  50        5D 0       -0.21839  -0.10374   0.04297  -0.04557  -0.05332
  51        5D+1       -0.20575  -0.09153   0.11952   0.00243  -0.16642
  52        5D-1       -0.06348  -0.15908  -0.00178   0.08637  -0.19370
  53        5D+2        0.01913  -0.10351   0.01155  -0.00939  -0.18053
  54        5D-2        0.17317   0.17468   0.13626  -0.17423   0.02430
  55 4   H  1S          0.30712   0.35133   0.09611  -0.32836   0.69363
  56        2S         -1.09207  -0.76144  -0.02790   0.31800  -0.90977
  57        3S          0.27959   0.22192   0.09044  -0.22167   0.48678
  58        4PX        -0.01655   0.54270   0.26592  -0.41857  -0.17817
  59        4PY         0.08903   0.14144  -0.03948   0.18695   0.24961
  60        4PZ        -0.34609   0.05424   0.32202  -0.03313  -0.20897
  61 5   H  1S         -0.07757  -0.03870  -0.21841   0.19316   0.23697
  62        2S         -0.09082   0.09806   0.54830  -0.22331  -0.38740
  63        3S         -0.05643  -0.10800  -0.22244   0.27841   0.07980
  64        4PX        -0.38531   0.28141   0.03172  -0.25055  -0.27110
  65        4PY         0.01020   0.14888   0.08613  -0.07887  -0.17615
  66        4PZ        -0.52406   0.21494   0.25404  -0.27607   0.16383
                          41        42        43        44        45
                           V         V         V         V         V
     Eigenvalues --     1.95141   2.09442   2.12494   2.26633   2.34109
   1 1   N  1S         -0.00604   0.00318   0.00215   0.01377   0.01126
   2        2S         -0.01334   0.00740   0.00360   0.03289   0.02780
   3        2PX         0.02063  -0.00784  -0.00684   0.07381   0.01763
   4        2PY        -0.05160   0.02780  -0.05302   0.10050   0.06267
   5        2PZ        -0.04935   0.04243   0.00614  -0.08224   0.10717
   6        3S          0.17169  -0.06261   0.01581  -0.30253  -0.26652
   7        3PX        -0.10964  -0.02534   0.01270  -0.00112   0.02376
   8        3PY        -0.02955  -0.02928  -0.03155  -0.06762  -0.04157
   9        3PZ        -0.01351   0.02210   0.00142  -0.00190  -0.01455
  10        4S         -0.60999   0.54736  -0.26755   0.13163   0.49308
  11        4PX         2.55095   0.96417   0.58705   0.39702   0.86523
  12        4PY        -0.21936   0.16009   0.01069   0.21441   0.43577
  13        4PZ        -0.13189   0.02079   0.12292  -0.04137   0.39928
  14        5D 0        0.05159  -0.02667  -0.41532  -0.30026  -0.15648
  15        5D+1        0.15094   0.09555  -0.02251  -0.07402   0.02596
  16        5D-1        0.03842  -0.44450   0.02673   0.13089   0.17927
  17        5D+2       -0.12220  -0.00644  -0.31916   0.22688   0.15317
  18        5D-2        0.35731   0.06764  -0.10012   0.16308   0.14000
  19 2   N  1S          0.00257   0.00113  -0.00311   0.01256   0.01170
  20        2S          0.00469   0.00233  -0.00730   0.03165   0.02753
  21        2PX         0.04426   0.01820  -0.00010  -0.01561   0.00648
  22        2PY        -0.05440   0.00735   0.00780   0.01431  -0.00823
  23        2PZ        -0.03159  -0.00553   0.00545  -0.00696   0.01200
  24        3S         -0.02705   0.00055   0.05555  -0.25519  -0.21934
  25        3PX         0.08403   0.05650  -0.03801   0.25110   0.21443
  26        3PY        -0.06871   0.00837  -0.01925   0.07614   0.04815
  27        3PZ        -0.03859   0.00655   0.00546   0.00206   0.02380
  28        4S         -1.63987  -0.95953  -0.39746  -0.20795  -0.72252
  29        4PX         0.48594   0.35850   0.15977  -0.04859   0.18242
  30        4PY         0.46089   0.09888   0.06721  -0.13809  -0.02322
  31        4PZ         0.13735   0.01532  -0.03924   0.07351  -0.20620
  32        5D 0        0.13641   0.01296   0.66632  -0.03758  -0.07006
  33        5D+1       -0.20320  -0.09905   0.03957  -0.21251   0.39757
  34        5D-1       -0.23743   0.69695  -0.02082  -0.14437   0.00507
  35        5D+2        0.28469   0.00547   0.36913   0.12293   0.03757
  36        5D-2       -0.31608   0.02769   0.09495   0.33545   0.18426
  37 3   N  1S         -0.00918   0.00785   0.00741   0.01399   0.01368
  38        2S         -0.01134   0.02518   0.01819   0.02967   0.03525
  39        2PX         0.01558  -0.04543  -0.00081   0.03692  -0.00427
  40        2PY         0.11510  -0.00413  -0.08284   0.08253   0.11008
  41        2PZ         0.08885   0.08550  -0.00685  -0.05385   0.03052
  42        3S         -0.15356  -0.28559  -0.18787  -0.22703  -0.29749
  43        3PX         0.14017   0.18274   0.06778  -0.09666   0.04252
  44        3PY        -0.01733   0.28141   0.02732   0.52993  -0.64702
  45        3PZ         0.01004  -0.11834  -0.04152  -0.04274  -0.06421
  46        4S          2.39639   0.33092   0.45871   0.25053   0.08545
  47        4PX         1.04778   0.12140   0.43681   0.35713   0.25153
  48        4PY        -0.14591  -0.10882  -0.17743   0.05071  -0.88655
  49        4PZ         0.39181   0.01252  -0.14652  -0.13102  -0.34338
  50        5D 0        0.20079   0.00163  -0.19525  -0.33289  -0.26740
  51        5D+1        0.09676  -0.18817   0.05373   0.24329  -0.26353
  52        5D-1       -0.21601  -0.05504   0.24421  -0.34521  -0.13490
  53        5D+2        0.07521   0.13046   0.05300   0.01495   0.22241
  54        5D-2       -0.03090  -0.15448   0.16776  -0.44669   0.00154
  55 4   H  1S         -0.12778  -0.67024  -0.26997  -0.16233   0.20970
  56        2S         -0.03622   1.14858   0.43388   0.72065  -0.77803
  57        3S          0.09655  -0.35199  -0.15454  -0.07200   0.21119
  58        4PX        -0.06509   0.29246   0.10660   0.09326  -0.10628
[...]
     2   7     0.14  -0.27  -0.01     0.01   0.00  -0.17     0.04  -0.02  -0.00
     3   7    -0.04  -0.16   0.03     0.02   0.04  -0.09    -0.11  -0.00  -0.14
     4   1     0.14  -0.35  -0.12    -0.16  -0.21  -0.82     0.28   0.09   0.59
     5   1    -0.60  -0.26  -0.25    -0.14  -0.18   0.26     0.18  -0.16   0.69
                     4                      5                      6
                     A                      A                      A
 Frequencies --  1048.3868              1260.9648              1632.2290
 Red. masses --     3.2950                 1.3652                 1.0835
 Frc consts  --     2.1338                 1.2790                 1.7008
 IR Inten    --    21.6178                18.4181                21.0549
  Atom  AN      X      Y      Z        X      Y      Z        X      Y      Z
     1   7     0.16  -0.11  -0.02     0.01   0.04  -0.01    -0.01  -0.01  -0.01
     2   7     0.20   0.02   0.01     0.10   0.02   0.00     0.02   0.01   0.00
     3   7    -0.30   0.10   0.05    -0.10  -0.08   0.01     0.07  -0.01  -0.02
     4   1     0.00  -0.15  -0.13    -0.69   0.18  -0.19    -0.58   0.46   0.18
     5   1    -0.81  -0.02  -0.36     0.63   0.19   0.04    -0.53  -0.30   0.21
                     7                      8                      9
                     A                      A                      A
 Frequencies --  2027.1362              3201.1734              3575.6713
 Red. masses --    10.3216                 1.0605                 1.0802
 Frc consts  --    24.9898                 6.4029                 8.1371
 IR Inten    --   108.6906                97.8650                52.7188
  Atom  AN      X      Y      Z        X      Y      Z        X      Y      Z
     1   7     0.63   0.17   0.01     0.00   0.00  -0.00     0.00  -0.00  -0.00
     2   7    -0.51  -0.14  -0.02    -0.00  -0.00   0.00    -0.00  -0.00  -0.00
     3   7    -0.09  -0.04   0.02    -0.03   0.05   0.02     0.03   0.06  -0.02
     4   1    -0.48   0.16  -0.14     0.06   0.13  -0.03    -0.47  -0.78   0.38
     5   1     0.02   0.08  -0.03     0.34  -0.88  -0.30     0.04  -0.09  -0.05

 -------------------
 - Thermochemistry -
 -------------------
 Temperature   298.150 Kelvin.  Pressure   1.00000 Atm.
 Atom     1 has atomic number  7 and mass  14.00307
 Atom     2 has atomic number  7 and mass  14.00307
 Atom     3 has atomic number  7 and mass  14.00307
 Atom     4 has atomic number  1 and mass   1.00783
 Atom     5 has atomic number  1 and mass   1.00783
 Molecular mass:    44.02487 amu.
 Principal axes and moments of inertia in atomic units:
                           1         2         3
     Eigenvalues --     8.21700 166.43076 172.86704
           X            0.99980  -0.00557  -0.01913
           Y            0.00565   0.99998   0.00401
           Z            0.01911  -0.00412   0.99981
 This molecule is an asymmetric top.
 Rotational symmetry number  1.
 Rotational temperatures (Kelvin)     10.54081     0.52042     0.50104
 Rotational constants (GHZ):         219.63509    10.84380    10.44005
    1 imaginary frequencies ignored.
 Zero-point vibrational energy      82668.8 (Joules/Mol)
                                   19.75831 (Kcal/Mol)
 Warning -- explicit consideration of   1 degrees of freedom as
           vibrations may cause significant error
 Vibrational temperatures:    581.02   966.49  1508.39  1814.24  2348.41
          (Kelvin)           2916.59  4605.77  5144.59
 
 Zero-point correction=                           0.031487 (Hartree/Particle)
 Thermal correction to Energy=                    0.034797
 Thermal correction to Enthalpy=                  0.035741
 Thermal correction to Gibbs Free Energy=         0.007160
 Sum of electronic and zero-point Energies=           -165.243526
 Sum of electronic and thermal Energies=              -165.240216
 Sum of electronic and thermal Enthalpies=            -165.239272
 Sum of electronic and thermal Free Energies=         -165.267853
 
                     E (Thermal)             CV                S
                      KCal/Mol        Cal/Mol-Kelvin    Cal/Mol-Kelvin
 Total                   21.835              8.861             60.154
 Electronic               0.000              0.000              1.377
 Translational            0.889              2.981             37.273
 Rotational               0.889              2.981             20.097
 Vibrational             20.058              2.899              1.407
 Vibration     1          0.769              1.462              0.949
                       Q            Log10(Q)             Ln(Q)
 Total Bot       0.509090D-03         -3.293205         -7.582886
 Total V=0       0.154781D+12         11.189717         25.765276
 Vib (Bot)       0.402797D-14        -14.394914        -33.145514
 Vib (Bot)    1  0.440121D+00         -0.356428         -0.820705
 Vib (V=0)       0.122464D+01          0.088009          0.202648
 Vib (V=0)    1  0.116611D+01          0.066741          0.153676
 Electronic      0.200000D+01          0.301030          0.693147
 Translational   0.114816D+08          7.060002         16.256256
 Rotational      0.550397D+04          3.740676          8.613225
 
                                                  reverse IRC, from TS reverse1 f
 req
                                                             IR Spectrum
 
     3             3                                         2             1            1      1                                     
     5             2                                         0             6            2      0             6        4              
     7             0                                         2             3            6      4             7        0              
     6             1                                         7             2            1      8             2        4              
 
     X             X                                         X             X            X      X             X        X              
     X             X                                         X             X            X      X             X        X              
     X             X                                         X                                               X                       
     X             X                                         X                                               X                       
     X             X                                         X                                               X                       
                   X                                         X                                               X                       
                   X                                         X                                               X                       
                   X                                         X                                               X                       
                   X                                         X                                               X                       
                                                             X                                               X                       
                                                             X                                               X                       
                                                                                                             X                       
                                                                                                             X                       
                                                                                                             X                       
                                                                                                             X                       
                                                                                                             X                       
                                                                                                             X                       
                                                                                                             X                       
                                                                                                             X                       
                                                                                                             X                       
 
 ***** Axes restored to original set *****
 -------------------------------------------------------------------
 Center     Atomic                   Forces (Hartrees/Bohr)
 Number     Number              X              Y              Z
 -------------------------------------------------------------------
      1        7          -0.055033743   -0.036614113    0.000044267
      2        7           0.028995530    0.019584395    0.010886174
      3        7           0.019675834    0.019286124   -0.012975189
      4        1           0.003780357   -0.002006229   -0.002914228
      5        1           0.002582021   -0.000250177    0.004958976
 -------------------------------------------------------------------
 Cartesian Forces:  Max     0.055033743 RMS     0.021130838
 Z-matrix is all fixed cartesians, so copy forces.
 Force constants in Cartesian coordinates: 
                1             2             3             4             5 
      1  0.305021D-01
      2  0.328154D-01  0.267100D-01
      3 -0.452236D-01  0.979140D-01  0.129816D+01
      4  0.111827D-01 -0.101572D-02 -0.148310D-01  0.507732D-04
      5 -0.119693D-03 -0.965084D-02 -0.122617D+00  0.649611D-03  0.996415D-02
      6 -0.219061D-01 -0.127909D+00 -0.933865D+00 -0.194442D-01  0.109760D+00
      7 -0.411360D-01 -0.196354D-01  0.182158D-01 -0.125619D-01 -0.690196D-02
      8 -0.309082D-01 -0.154094D-01  0.377466D-01 -0.489935D-02 -0.599826D-02
      9  0.432088D-01 -0.613524D-02 -0.296054D+00  0.408635D-01  0.159592D-01
     10  0.115432D-01  0.611521D-02  0.286512D-01  0.499310D-03 -0.148164D-02
     11  0.134957D-01 -0.132691D-01 -0.394330D-02 -0.440805D-02  0.873320D-02
     12 -0.697276D-02  0.435147D-02 -0.695563D-01 -0.322311D-02 -0.819347D-03
     13 -0.120919D-01 -0.182795D-01  0.131876D-01  0.829136D-03  0.785368D-02
     14 -0.152833D-01  0.116193D-01 -0.910039D-02  0.967351D-02 -0.304824D-02
     15  0.308936D-01  0.317787D-01  0.131302D-02 -0.336526D-02 -0.228293D-02
                6             7             8             9            10 
      6  0.100098D+01
      7  0.251947D-01  0.454183D+00
      8 -0.770779D-02  0.233588D+00  0.273709D+00
      9 -0.664845D-01  0.130224D+00 -0.482959D-01  0.619447D+00
     10  0.449557D-02 -0.274917D+00 -0.603380D-01 -0.212961D+00  0.274779D+00
     11  0.445963D-02 -0.394349D-01 -0.232927D-01  0.603453D-02  0.507453D-01
     12  0.859860D-02 -0.185807D+00 -0.181171D-01 -0.186707D+00  0.191172D+00
     13  0.116599D-01 -0.125568D+00 -0.137442D+00 -0.133559D-02 -0.119052D-01
     14  0.213971D-01 -0.167615D+00 -0.229008D+00  0.324374D-01  0.495919D-02
     15 -0.923262D-02  0.121718D-01  0.363742D-01 -0.702011D-01 -0.113576D-01
               11            12            13            14            15 
     11  0.319071D-01
     12  0.141519D-01  0.240000D+00
     13 -0.203980D-01  0.483066D-02  0.148736D+00
     14 -0.407851D-02  0.433056D-03  0.168266D+00  0.224516D+00
     15 -0.207028D-01  0.766453D-02 -0.283425D-01 -0.451672D-01  0.704562D-01
 Leave Link  716 at Fri Apr 25 17:10:01 2014, MaxMem=   65536000 cpu:       0.2
 (Enter /apps/gaussian/g09/l103.exe)

 GradGradGradGradGradGradGradGradGradGradGradGradGradGradGradGradGradGrad
 Berny optimization.
 Search for a local minimum.
 Step number   1 out of a maximum of    2
 All quantities printed in internal units (Hartrees-Bohrs-Radians)
 Second derivative matrix not updated -- analytic derivatives used.
 The second derivative matrix:
                          X1        Y1        Z1        X2        Y2
           X1           0.03050
           Y1           0.03282   0.02671
           Z1          -0.04522   0.09791   1.29816
           X2           0.01118  -0.00102  -0.01483   0.00005
           Y2          -0.00012  -0.00965  -0.12262   0.00065   0.00996
           Z2          -0.02191  -0.12791  -0.93387  -0.01944   0.10976
           X3          -0.04114  -0.01964   0.01822  -0.01256  -0.00690
           Y3          -0.03091  -0.01541   0.03775  -0.00490  -0.00600
           Z3           0.04321  -0.00614  -0.29605   0.04086   0.01596
           X4           0.01154   0.00612   0.02865   0.00050  -0.00148
           Y4           0.01350  -0.01327  -0.00394  -0.00441   0.00873
           Z4          -0.00697   0.00435  -0.06956  -0.00322  -0.00082
           X5          -0.01209  -0.01828   0.01319   0.00083   0.00785
           Y5          -0.01528   0.01162  -0.00910   0.00967  -0.00305
           Z5           0.03089   0.03178   0.00131  -0.00337  -0.00228
                          Z2        X3        Y3        Z3        X4
           Z2           1.00098
           X3           0.02519   0.45418
           Y3          -0.00771   0.23359   0.27371
           Z3          -0.06648   0.13022  -0.04830   0.61945
           X4           0.00450  -0.27492  -0.06034  -0.21296   0.27478
           Y4           0.00446  -0.03943  -0.02329   0.00603   0.05075
           Z4           0.00860  -0.18581  -0.01812  -0.18671   0.19117
           X5           0.01166  -0.12557  -0.13744  -0.00134  -0.01191
           Y5           0.02140  -0.16762  -0.22901   0.03244   0.00496
           Z5          -0.00923   0.01217   0.03637  -0.07020  -0.01136
                          Y4        Z4        X5        Y5        Z5
           Y4           0.03191
           Z4           0.01415   0.24000
           X5          -0.02040   0.00483   0.14874
           Y5          -0.00408   0.00043   0.16827   0.22452
           Z5          -0.02070   0.00766  -0.02834  -0.04517   0.07046
     Eigenvalues ---   -0.00492   0.00265   0.05249   0.11980   0.12682
     Eigenvalues ---    0.38998   0.73012   0.94509   2.14499
 Eigenvalue     1 is  -4.92D-03 should be greater than     0.000000 Eigenvector:
                          Z5        X1        X2        Y1        Y2
   1                   -0.53756   0.48251  -0.36515   0.34619  -0.27714
                          Y5        X4        Y4        Z2        X5
   1                   -0.18117  -0.17784  -0.16713   0.12843   0.11794
 Quadratic step=1.205D+01 exceeds max=3.000D-01 adjusted using Lamda=-2.134D-01.
 Angle between NR and scaled steps=  26.84 degrees.
 Angle between quadratic step and forces=  22.16 degrees.
 Linear search not attempted -- first point.
 TrRot= -0.004002 -0.001403 -0.004425  0.329664  0.007474 -0.335547
 Variable       Old X    -DE/DX   Delta X   Delta X   Delta X     New X
                                 (Linear)    (Quad)   (Total)
    X1       -0.30466  -0.05503   0.00000  -0.19873  -0.20351  -0.50817
    Y1       -0.20150  -0.03661   0.00000  -0.12872  -0.12676  -0.32826
    Z1        0.16389   0.00004   0.00000  -0.00296  -0.00302   0.16087
    X2       -0.39497   0.02900   0.00000   0.12028   0.13330  -0.26168
    Y2        0.00020   0.01958   0.00000   0.07633   0.08221   0.08241
    Z2        2.35717   0.01089   0.00000  -0.01596  -0.01870   2.33846
    X3        0.62913   0.01968   0.00000   0.04818   0.03005   0.65918
    Y3        0.09081   0.01929   0.00000   0.03670   0.02623   0.11704
    Z3       -2.09875  -0.01298   0.00000  -0.00072  -0.01018  -2.10894
    X4       -0.79721   0.00378   0.00000   0.05991   0.03161  -0.76560
    Y4       -0.08417  -0.00201   0.00000   0.00535   0.00013  -0.08404
    Z4       -3.36165  -0.00291   0.00000  -0.01324  -0.01218  -3.37382
    X5        1.78037   0.00258   0.00000   0.02017   0.00855   1.78893
    Y5        1.61655  -0.00025   0.00000   0.03614   0.01819   1.63474
    Z5       -2.50433   0.00496   0.00000   0.06522   0.04409  -2.46025
         Item               Value     Threshold  Converged?
 Maximum Force            0.055034     0.000450     NO 
 RMS     Force            0.021131     0.000300     NO 
 Maximum Displacement     0.203510     0.001800     NO 
 RMS     Displacement     0.076402     0.001200     NO 
 Predicted change in Energy=-2.132592D-02
 GradGradGradGradGradGradGradGradGradGradGradGradGradGradGradGradGradGrad

 Leave Link  103 at Fri Apr 25 17:10:01 2014, MaxMem=   65536000 cpu:       0.1
 (Enter /apps/gaussian/g09/l9999.exe)

 Test job not archived.
 1\1\GINC-ROMEO170\Freq\UM06\6-311G(d,p)\H2N3(2)\ROOT\25-Apr-2014\0\\#P
  M06 6-311G** FREQ # GFINPUT IOP(6/7=3) POP=FULL\\reverse IRC, from TS
  reverse1 freq\\0,2\N,-0.161221,-0.10663,0.086729\N,-0.209011,0.000104
 ,1.24736\N,0.332921,0.048056,-1.110612\H,-0.421866,-0.044542,-1.778906
 \H,0.942132,0.855443,-1.325236\\Version=AM64L-G09RevA.02\State=2-A\HF=
 -165.2750124\S2=0.753755\S2-1=0.\S2A=0.75001\RMSD=7.891e-09\RMSF=2.113
 e-02\ZeroPoint=0.0314869\Thermal=0.0347966\Dipole=0.0954646,0.4454666,
 -1.3733863\DipoleDeriv=-0.1478543,-0.1999739,-0.4146148,-0.0176078,-0.
 083118,-0.2555084,-0.5036927,-0.1665273,0.9882398,-0.1656293,0.030849,
 0.0376436,0.0082944,-0.1733556,0.0301405,0.424286,0.3047256,-0.5823358
 ,0.0265234,0.4072614,0.2928984,0.3591603,-0.0214253,-0.1935766,-0.0236
 183,-0.2182447,-0.6380594,0.1744903,-0.057307,-0.0174451,-0.0572449,0.
 2671122,0.1595166,0.0460872,0.0411196,0.2463295,0.1124698,-0.1808295,0
 .1015179,-0.292602,0.0107868,0.2594279,0.0569377,0.0389268,-0.0141742\
 Polar=16.4875723,3.905897,14.3973542,-6.0223388,-3.0039092,37.6767529\
 PG=C01 [X(H2N3)]\NImag=1\\0.03050208,0.03281541,0.02671003,-0.04522364
 ,0.09791399,1.29816233,0.01118268,-0.00101572,-0.01483098,0.00005077,-
 0.00011969,-0.00965084,-0.12261686,0.00064961,0.00996415,-0.02190606,-
 0.12790890,-0.93386501,-0.01944417,0.10975993,1.00098354,-0.04113604,-
 0.01963540,0.01821582,-0.01256190,-0.00690196,0.02519474,0.45418316,-0
 .03090818,-0.01540941,0.03774656,-0.00489935,-0.00599826,-0.00770779,0
 .23358761,0.27370866,0.04320884,-0.00613524,-0.29605406,0.04086351,0.0
 1595921,-0.06648450,0.13022427,-0.04829590,0.61944685,0.01154320,0.006
 11521,0.02865124,0.00049931,-0.00148164,0.00449557,-0.27491674,-0.0603
 3804,-0.21296105,0.27477942,0.01349571,-0.01326906,-0.00394330,-0.0044
 0805,0.00873320,0.00445963,-0.03943490,-0.02329272,0.00603453,0.050745
 28,0.03190709,-0.00697276,0.00435147,-0.06955627,-0.00322311,-0.000819
 35,0.00859860,-0.18580665,-0.01811707,-0.18670714,0.19117185,0.0141519
 0,0.24000028,-0.01209192,-0.01827951,0.01318756,0.00082914,0.00785368,
 0.01165991,-0.12556848,-0.13744204,-0.00133559,-0.01190519,-0.02039804
 ,0.00483066,0.14873645,-0.01528325,0.01161928,-0.00910039,0.00967351,-
 0.00304824,0.02139714,-0.16761536,-0.22900826,0.03243740,0.00495919,-0
 .00407851,0.00043306,0.16826592,0.22451574,0.03089362,0.03177869,0.001
 31302,-0.00336526,-0.00228293,-0.00923262,0.01217181,0.03637420,-0.070
 20115,-0.01135762,-0.02070275,0.00766453,-0.02834255,-0.04516720,0.070
 45622\\0.05503374,0.03661411,-0.00004427,-0.02899553,-0.01958440,-0.01
 088617,-0.01967583,-0.01928612,0.01297519,-0.00378036,0.00200623,0.002
 91423,-0.00258202,0.00025018,-0.00495898\\\@


 VIRTUE IS LEARNED AT YOUR MOTHER'S KNEE,
 VICES ARE PICKED UP AT SOME OTHER JOINT.
 Job cpu time:  0 days  0 hours  1 minutes 50.3 seconds.
 File lengths (MBytes):  RWF=      9 Int=      0 D2E=      0 Chk=      1 Scr=      1
 Normal termination of Gaussian 09 at Fri Apr 25 17:10:01 2014.
************
total 316
drwxrwxr-x 2 henon henon   4096 25 avril 17:10 .
drwxrwxr-x 3 henon henon   4096 25 avril 17:09 ..
-rw-r--r-- 1 henon henon    391 25 avril 17:09 7Rfreq.inp
-rw-rw-r-- 1 henon henon 310733 25 avril 17:10 7Rfreq.out
Run on 12 cores
romeo170
************
