

 Parallel Execution: Process Information
 ==============================================================================
 Rank   Node Name                              NodeID   MyNodeRank  NodeMaster
    0   macbookproeric2018.home                   0          0          0
    1   macbookproeric2018.home                   0          1         -1
    2   macbookproeric2018.home                   0          2         -1
    3   macbookproeric2018.home                   0          3         -1
    4   macbookproeric2018.home                   0          4         -1
    5   macbookproeric2018.home                   0          5         -1
    6   macbookproeric2018.home                   0          6         -1
    7   macbookproeric2018.home                   0          7         -1
    8   macbookproeric2018.home                   0          8         -1
    9   macbookproeric2018.home                   0          9         -1
 ==============================================================================


May use up to 17578MB of RAM as shared memory on node 0

 *******************************************************************************
 *                                                                             *
 *  --------------------------------                                           *
 *   Amsterdam Modeling Suite (AMS)              2024.102                      *
 *  --------------------------------                                           *
 *                                               r122055 2024-06-07            *
 *                                                                             *
 *                                                                             *
 *                              =================                              *
 *                              |               |                              *
 *                              |     A M S     |                              *
 *                              |               |                              *
 *                              =================                              *
 *                                                                             *
 *                                                                             *
 *   Online information and documentation:  https://www.scm.com/support/       *
 *   E-mail:  support@scm.com   info@scm.com                                   *
 *                                                                             *
 *   Scientific publications using AMS results must be properly referenced     *
 *   See the User Manuals (or the web site) for recommended citations          *
 *   The terms and conditions of the End User License Agreement apply to       *
 *   the use of AMS, https://www.scm.com/license-terms/                        *
 *                                                                             *
 **********************  x86_64_darwin_intel / openmpi  ************************
 
 Licensed to: Prof. Eric HENON / Institut de Chimie Moléculaire de Reims / Reims / FRANCE 2024-07-19 18:58:06
 SCM User ID: u27163
  
 AMS 2024.102  RunTime: Aug16-2024 12:00:42  ShM Nodes: 1  Procs: 10

 AMS jobname: ams
 AMS jobid  : 2055722862

 Start   directory: /Users/henon1/0testJobs/2_ChemistrySofts/4_ADF/5_BimolReaction/2ex_vtst/3_IRC/tmp.henon1.6770.0.noindex/
 Results directory: /Users/henon1/0testJobs/2_ChemistrySofts/4_ADF/5_BimolReaction/2ex_vtst/3_IRC/irc.results/
 Scratch directory: /tmp/amstmp_ams_kid0.2055722862/


 Communication costs MPI_COMM_WORLD:      1.003 usec per message,   0.0130 usec per 8-byte item
 Communication costs for intra-node:      1.156 usec per message,   0.0137 usec per 8-byte item

 RNG seed: -1273941173 648367782 -327557647 1022735390 -1621344572 -1032426242 -353239597 -1743816234



                     *************************************************************************
                     *  ADF 2024.102  RunTime: Aug16-2024 12:00:45  ShM Nodes: 1  Procs: 10  *
                     *************************************************************************
  


           *********************************
           * INTRINSIC REACTION COORDINATE *
           *********************************

 IRC Configuration:

 IRC Points per direction:    100
 Max GeoOpt Iterations:       300
 Initial Hessian type:        calculate
 Convergence on gradient:     1.0000000E-03
 Convergence on step size:    1.0000000E-03
 IRC step size:               2.0000000E-01
 Minimum path length:         1.8897261E-01
 Direction:                   Both    
 Optimization coordinates:    Cartesian  
 Keep converged result?       T
 MinEProfile instead of IRC?  F
--------------------------------------------------

    Energy minimization configuration follows
   (used only at the ends of the reaction path)

       ***************************
       *  GEOMETRY OPTIMIZATION  *
       ***************************

Optimization Method                    Quasi Newton
Optimization Coordinates               Delocalized Coordinates
Optimize lattice                       F
 
 ------------------------------------------------------
 Convergence criteria (Hartree,Angstrom)
 ------------------------------------------------------
 Maximum gradient               0.001000000000
 Maximum rms gradient           0.000666666667
 Maximum step allowed           0.010000000000
 Maximum rms step allowed       0.006666666667
 Maximum energy change allowe   0.000060000000
 Maximum stress energy allowe   0.000500000000
 
Initial model Hessian                  Calculated initial Hessian
 
------------------------------------
Quasi-Newton Optimizer Parameters
------------------------------------
Hessian Update Method                  BFGS
Maximum number of steps                  250
First GDIIS cycle                          0
Maximum GDIIS vectors                      0
Trust radius (bohr)                        0.200000
Trust radius varies                        T
Constraints converged at all steps         T
Use projector                              T
 
 Rigid motions settings for: old optimizer
 Atomic rotations (x,y,z):     T T T
 Atomic translations (x,y,z):  T T T
 Tolerance:                   1.000000000000000E-006
 
--------
Geometry
--------
Formula: CH5
Atoms
  Index Symbol   x (angstrom)   y (angstrom)   z (angstrom)
      1      C     0.02708322    -0.05470673     0.01833854
      2      H    -0.00205365     0.00486775     1.10202646
      3      H     1.01902972     0.00438435    -0.41912542
      4      H    -0.62506709    -0.80387097    -0.41986736
      5      H    -0.56935091     1.15781659    -0.38245889
      6      H    -0.94731128     1.92433902    -0.63721732
 
Total System Charge             0.00000
Bonding info available!
 
 
----------------
ADF Engine Input
----------------
 
 Basis
 Core None
 End
 SpinPolarization 1
 XC
 Hybrid B3LYP
 End
 Relativity
 Level None
 End
 Unrestricted Yes
 

 Title: *** (NO TITLE) ***

 *** TS ***



 ===========================
 A T T A C H E D   F I L E S
 ===========================
  



 ===============================
 M O D E L   P A R A M E T E R S
 ===============================
  
 DENSITY FUNCTIONAL POTENTIAL (scf)
    Hybrid:                            B3LYP                                   == Not Default ==

 SPIN  (restricted / unrestr.)
    Molecule:                          UNrestricted                            == Not Default ==
    Fragments:                         Restricted                               

 OTHER ASPECTS
    Relativistic Corrections:          ---                                     == Not Default ==

    Nuclear Charge Density Model:      Point Charge Nuclei                      
    Core Treatment:                    Frozen Orbital(s)                        

    Hyperfine or Zeeman Interaction:   ---                                      


 Fragment File(s)
 ----------------
 C:
         file : /Users/henon1/0testJobs/2_ChemistrySofts/4_ADF/5_BimolReaction/2ex_vtst/3_IRC/irc.results/t21.14F2B692.C
         jobid: 0
         title: Carbon (DZ)
 H:
         file : /Users/henon1/0testJobs/2_ChemistrySofts/4_ADF/5_BimolReaction/2ex_vtst/3_IRC/irc.results/t21.3F46D696.H
         jobid: 0
         title: Hydrogen (DZ)



 ===============
 G E O M E T R Y  ***  3D  Molecule  ***
 ===============
  

 ATOMS
 =====                            X Y Z                    CHARGE
                                (Angstrom)             Nucl     +Core       At.Mass
                       --------------------------    ----------------       -------
    1  C               0.0271   -0.0547    0.0183      6.00      6.00       12.0000
    2  H              -0.0021    0.0049    1.1020      1.00      1.00        1.0078
    3  H               1.0190    0.0044   -0.4191      1.00      1.00        1.0078
    4  H              -0.6251   -0.8039   -0.4199      1.00      1.00        1.0078
    5  H              -0.5694    1.1578   -0.3825      1.00      1.00        1.0078
    6  H              -0.9473    1.9243   -0.6372      1.00      1.00        1.0078


 FRAGMENTS
 =========                                     Atoms in this Fragment     Cart. coord.s (Angstrom)
                                               -------------------------------------------------------
    1  C                                                 1  C            0.0271   -0.0547    0.0183
    2  H                                                 2  H           -0.0021    0.0049    1.1020
    3  H                                                 3  H            1.0190    0.0044   -0.4191
    4  H                                                 4  H           -0.6251   -0.8039   -0.4199
    5  H                                                 5  H           -0.5694    1.1578   -0.3825
    6  H                                                 6  H           -0.9473    1.9243   -0.6372


 Interatomic Distance Matrix (Angstrom)
 --------------------------------------

   1)     0.000
   2)     1.086   0.000
   3)     1.086   1.832   0.000
   4)     1.086   1.833   1.832   0.000
   5)     1.409   1.963   1.963   1.963   0.000
   6)     2.301   2.757   2.757   2.756   0.892   0.000

 Min. Distance =    0.8918
 Max. Distance =    2.7573



 =====================================
 S Y M M E T R Y ,   E L E C T R O N S
 =====================================
  
 Symmetry: NOSYM

 Irreducible Representations, including subspecies
 -------------------------------------------------
 A

 Symmetry is NOT used when fitting density


 Configuration of Valence Electrons
 ==================================
 ( determined in the SCF procedure )

 Total:   6 (Spin-A)  + 5 (Spin-B)

 Net Charge: 0 (Nuclei minus Electrons)
 Spin polar: 1 (Spin_A minus Spin_B electrons)

 Aufbau principle for MO occupations will be applied through SCF cycle no.     150
 Thereafter, the program will assign electrons to MOs that are spatially
 similar to the occupied MOs in a "reference" cycle ("KeepOrbitals").
 The reference cycle is always the PREVIOUS cycle: it will evolve with
 the SCF procedure.
1
 ***************************************************************************************************



                                      ****************************************
                                      *  B U I L D : (Fragments, Functions)  *
                                      ****************************************
  



 =======
 S F O s  ***  (Symmetrized Fragment Orbitals)  ***
 =======
  
 SFOs are linear combinations of (valence) Fragment Orbitals (FOs), such that the SFOs transform as the
 irreducible representations of the (molecular) symmetry group. Each SFO is therefore characterized by
 an irrep of the molecule and by a few (or only one) generating FOs.
 The SFOs constitute a symmetry-adapted basis for the Fock matrix. The MO eigenvector coefficients in
 this basis provide a direct interpretation of the MOs in terms of Frontier Orbital Theory.

 The SFOs are combined with auxiliary Core Functions (CFs) to ensure orthogonalization on the (frozen)
 Core Orbitals (COs). The Core-orthogonalized SFOs (CSFOs) constitute the true Fock basis.

 The FOs, and hence also the (C)SFOs are combinations of the elementary basis functions (BAS). The basis
 functions that participate in the description of the SFOs depend on the irrep. The indices of the
 involved functions are printed below for each irrep.
 (The complete list of primitive basis functions is printed in another section)

 Total nr. of (C)SFOs (summation over all irreps) :    20

 NOTE: a (C)SFO that is defined as a combination of more than one FO is usually NOT normalized.



                                       === A ===
 Nr. of SFOs :   20
 Cartesian basis functions that participate in this irrep (total number =    20) :
      1     2     3     4     5     8     6     9     7    10
     11    12    13    14    15    16    17    18    19    20

    SFO  (index         Fragment          Generating    Expansion in Fragment Orbitals
  indx  incl.CFs)   Occup   Orb.Energy   FragmentType  Coeff.   Orbital     on Fragment
 --------------------------------------------------------------------------------------
     1       1      2.000     -10.354 au  C             1.00      1 S               1
                        (    -281.747 eV)
     2       2      2.000      -0.566 au  C             1.00      2 S               1
                        (     -15.403 eV)
     3       3       --         0.439 au  C             1.00      3 S               1
                        (      11.952 eV)
     4       4       --        22.025 au  C             1.00      4 S               1
                        (     599.322 eV)
     5       5      0.667      -0.188 au  C             1.00      1 P:x             1
                        (      -5.117 eV)
     6       6       --         0.484 au  C             1.00      2 P:x             1
                        (      13.170 eV)
     7       7      0.667      -0.188 au  C             1.00      1 P:y             1
                        (      -5.117 eV)
     8       8       --         0.484 au  C             1.00      2 P:y             1
                        (      13.170 eV)
     9       9      0.667      -0.188 au  C             1.00      1 P:z             1
                        (      -5.117 eV)
    10      10       --         0.484 au  C             1.00      2 P:z             1
                        (      13.170 eV)
    11      11      1.000      -0.244 au  H             1.00      1 S               2
                        (      -6.637 eV)
    12      12       --         0.419 au  H             1.00      2 S               2
                        (      11.415 eV)
    13      13      1.000      -0.244 au  H             1.00      1 S               3
                        (      -6.637 eV)
    14      14       --         0.419 au  H             1.00      2 S               3
                        (      11.415 eV)
    15      15      1.000      -0.244 au  H             1.00      1 S               4
                        (      -6.637 eV)
    16      16       --         0.419 au  H             1.00      2 S               4
                        (      11.415 eV)
    17      17      1.000      -0.244 au  H             1.00      1 S               5
                        (      -6.637 eV)
    18      18       --         0.419 au  H             1.00      2 S               5
                        (      11.415 eV)
    19      19      1.000      -0.244 au  H             1.00      1 S               6
                        (      -6.637 eV)
    20      20       --         0.419 au  H             1.00      2 S               6
                        (      11.415 eV)



 ================================
 (Slater-type)  F U N C T I O N S  ***  (Basis and Fit)  ***
 ================================
  

 Atom Type    1  (C)
 ==============

 Valence Basis Sets:   6
 -----------------------
   1 S    7.680000
   1 S    5.000000
   2 S    1.980000
   2 S    1.240000
   2 P    2.200000
   2 P    0.960000

 Charge Fitting Sets (for the computation of the Coulomb Potential):  22
 -----------------------------------------------------------------------
   1 S   15.360000
   2 S   17.530000
   2 S   12.070000
   2 S    8.310000
   2 S    5.730000
   3 S    5.780000
   3 S    4.220000
   3 S    3.080000
   3 S    2.250000
   3 S    1.640000
   2 P    9.880000
   2 P    5.800000
   3 P    5.050000
   3 P    3.230000
   3 P    2.060000
   3 D    7.200000
   3 D    4.400000
   3 D    2.690000
   3 D    1.640000
   4 F    5.400000
   4 F    3.550000
   5 G    4.500000

 Atom Type    2  (H)
 ==============

 Valence Basis Sets:   2
 -----------------------
   1 S    0.760000
   1 S    1.280000

 Charge Fitting Sets (for the computation of the Coulomb Potential):  11
 -----------------------------------------------------------------------
   1 S    3.160000
   1 S    2.090000
   1 S    1.380000
   2 S    1.500000
   2 P    4.000000
   2 P    2.650000
   2 P    1.750000
   3 D    4.000000
   3 D    2.500000
   4 F    3.000000
   5 G    4.000000


 BAS: List of all Elementary Cartesian Basis Functions
 =====================================================

 The numbering in the list below (to the right of the function characteristics) is referred
 to in print-outs of MO eigenvectors and Mulliken populations in the BAS representation
 (as contrasted to the SFO representation).

 Notes:
 1. The functions are characterized by a polynomial prefactor (powers of x,y,z and r) and
    an exponential decay factor alpha.
 2. Since the basis sets are specific for an atom TYPE, the individual functions occur on
    all atoms of that type.
 3. The word 'Core' in the left margin signals that it is a Core Function (CF) : not a
    degree of freedom in the valence set, but only used to ensure orthogonalization of
    the other valence basis functions on the frozen Core Orbitals.


 (power of) X  Y  Z  R     Alpha  on Atom
            ==========     =====     ==========

 C                                    1
                                  ---------------------------------------------------------------------------
            0  0  0  0     7.680      1
            0  0  0  0     5.000      2
            0  0  0  1     1.980      3
            0  0  0  1     1.240      4
            1  0  0  0     2.200      5
            0  1  0  0     2.200      6
            0  0  1  0     2.200      7
            1  0  0  0     0.960      8
            0  1  0  0     0.960      9
            0  0  1  0     0.960     10

 H                                    2    3    4    5    6
                                  ---------------------------------------------------------------------------
            0  0  0  0     0.760     11   13   15   17   19
            0  0  0  0     1.280     12   14   16   18   20

 Total number of charge fitting functions (nprimf)       334
 Total number of Cartesian basis functions (naos)         20
 Total number of Cartesian core functions  (ncos)          0

1
 ***************************************************************************************************



                                              ***********************
                                              *  T E C H N I C A L  *
                                              ***********************
  



 =============================================================
 P A R A L L E L I Z A T I O N  and  V E C T O R I Z A T I O N
 =============================================================
  
 Nr of parallel processes:                               10
 Maximum vector length in NumInt loops:                 128



 =====================
 S C F   U P D A T E S
 =====================
  
 Max. nr. of cycles:                               300
 Convergence criterion:                              0.0000010000
   secondary criterion:                              0.0010000000

 Mix parameter (when DIIS does not apply):           0.2000000000
 Mixed ADIIS+SDIIS will be used                  
    Max number of expansion vectors:                10
    Pure ADIIS when Max([F,P]) is above              0.1000000000
    Pure SDIIS when Max([F,P]) is below              0.0010000000
 Automatic ElectronSmearing (in case of problematic SCF convergence) disabled



 =================
 P R E C I S I O N  ***  (General: NumInt, NeglectFunctionTails, ...)  ***
 =================
  

 NumInt:           Target precision:                 4.0000000000
 -------           Initial precision:                4.0000000000
                   Min. precision (optimization):    4.0000000000

 Neglect Functions:          Basis functions:        0.1000000000E-05
 ------------------          Fit functions:          0.1000000000E-05



 ===========================
 L I N E A R   S C A L I N G
 ===========================
  

 Cut-off radii density fit:                        0.1000000000E-07
 Overlap cut-off criterion AO matrix elements:     0.1000000000E-05
 Cut-offs for Coulomb potential and fitted density:0.1000000000E-07
 Cut-off criterion for Coulomb multipole terms:    0.1000000000E-07
 Progressive Convergence parameter:                 0.000000000    
1
 ***************************************************************************************************



                                            ***************************
                                            *  C O M P U T A T I O N  *
                                            ***************************
  

 Number of elements of the density matrix on this node (used, total):        55       210



 ===========================================
 Numerical Integration : Fuzzy Cells (Becke)
 ===========================================
  
 Becke grid quality: NORMAL         
  
 Lebedev angular grid order:             min:  11 max:  23
 Nr. of radial points:                   min:  46 max:  52

 Total nr. of points:      36258
 Nr. of blocks:              284
 Block length:               128
 Nr. of dummy points:         94


 Test of Precision of the Numerical Integration Grid
 ===================================================

 Integral of the Total Core Density:                   0.00000000000000



 ========================
 Density Fitting (zlmFit)
 ========================
  
 ZlmFit Fit Quality: NORMAL         
  
 Max L-expansion:                        min:   4 max:   5
 Nr. of radial interpolation points:     min:  36 max:  48



 ======================
 RI Hartree-Fock Scheme
 ======================
  
 Fit Set Quality     : NORMAL
 Threshold Quality   : NORMAL
 Integration Quality : NORMAL
 Fit Generation Method : AUTO
 Response Quality    : DEFAULT
 Is Range Separated  :  F
 
 RIHartreeFock Dependency: number of modified vectors:           0



 =====
 S C F  ***  ScaSCF  ***
 =====
  
 Initial density matrix is calculated as sum of fragments

 CYCLE    1
 SCF Error: norm([F,P])=      2.355369340248, max([F,P])=      0.519236078038
 ***** SPIN 1 *****
 orbitals (Q,E):
 ---------------
 A :1...16           ( 1.00   -10.4915)  ( 1.00    -0.9272)  ( 1.00    -0.5606)  ( 1.00    -0.5605)
                     ( 1.00    -0.5567)  ( 1.00    -0.2859)  ( 0.00    -0.0255)  ( 0.00     0.0513)
                     ( 0.00     0.0515)  ( 0.00     0.0910)  ( 0.00     0.3341)  ( 0.00     0.3343)
                     ( 0.00     0.3566)  ( 0.00     0.4232)  ( 0.00     0.6772)  ( 0.00     0.7594)
 ***** SPIN 2 *****
 orbitals (Q,E):
 ---------------
 A :1...15           ( 1.00   -10.4915)  ( 1.00    -0.9272)  ( 1.00    -0.5606)  ( 1.00    -0.5605)
                     ( 1.00    -0.5567)  ( 0.00    -0.2859)  ( 0.00    -0.0255)  ( 0.00     0.0513)
                     ( 0.00     0.0515)  ( 0.00     0.0910)  ( 0.00     0.3341)  ( 0.00     0.3343)
                     ( 0.00     0.3566)  ( 0.00     0.4232)  ( 0.00     0.6772)
  
 Spin polar: 1 (Spin_A minus Spin_B electrons)

 CYCLE    2
  SDIIS (wt  0.000):  0.0737  0.9263
 A-DIIS (wt  1.000):  0.1847  0.8153
  DIIS coefficients:  0.1847  0.8153
 SCF Error: norm([F,P])=      0.542806370367, max([F,P])=      0.086918880777
 ***** SPIN 1 *****
 orbitals (Q,E):
 ---------------
 A :1...7            ( 1.00    -9.9504)  ( 1.00    -0.6481)  ( 1.00    -0.4463)  ( 1.00    -0.3608)
                     ( 1.00    -0.3607)  ( 1.00    -0.1598)  ( 0.00     0.0727)
 ***** SPIN 2 *****
 orbitals (Q,E):
 ---------------
 A :1...6            ( 1.00    -9.9425)  ( 1.00    -0.6291)  ( 1.00    -0.4016)  ( 1.00    -0.3550)
                     ( 1.00    -0.3549)  ( 0.00    -0.0682)
  
 Spin polar: 1 (Spin_A minus Spin_B electrons)

 CYCLE    3
  SDIIS (wt  0.000):  0.0028  0.4540  0.5432
 A-DIIS (wt  1.000):  0.0000  0.4331  0.5669
  DIIS coefficients:  0.0000  0.4331  0.5669
 SCF Error: norm([F,P])=      0.453929325292, max([F,P])=      0.077213534959
 ***** SPIN 1 *****
 orbitals (Q,E):
 ---------------
 A :1...7            ( 1.00   -10.2230)  ( 1.00    -0.7242)  ( 1.00    -0.4570)  ( 1.00    -0.4368)
                     ( 1.00    -0.4367)  ( 1.00    -0.2195)  ( 0.00     0.0472)
 ***** SPIN 2 *****
 orbitals (Q,E):
 ---------------
 A :1...6            ( 1.00   -10.2144)  ( 1.00    -0.6981)  ( 1.00    -0.4288)  ( 1.00    -0.4287)
                     ( 1.00    -0.4113)  ( 0.00    -0.0952)
  
 Spin polar: 1 (Spin_A minus Spin_B electrons)

 CYCLE    4
  SDIIS (wt  0.908): -0.0327  0.0516  0.9811
 A-DIIS (wt  0.092):  0.0000  0.0000  1.0000
  DIIS coefficients: -0.0297  0.0469  0.9829
 SCF Error: norm([F,P])=      0.045406562767, max([F,P])=      0.010094276647
 ***** SPIN 1 *****
 orbitals (Q,E):
 ---------------
 A :1...7            ( 1.00   -10.2011)  ( 1.00    -0.7153)  ( 1.00    -0.4614)  ( 1.00    -0.4279)
                     ( 1.00    -0.4279)  ( 1.00    -0.2228)  ( 0.00     0.0509)
 ***** SPIN 2 *****
 orbitals (Q,E):
 ---------------
 A :1...6            ( 1.00   -10.1913)  ( 1.00    -0.6887)  ( 1.00    -0.4201)  ( 1.00    -0.4200)
                     ( 1.00    -0.4185)  ( 0.00    -0.0926)
  
 Spin polar: 1 (Spin_A minus Spin_B electrons)

 CYCLE    5
  SDIIS (wt  0.985): -0.0274 -0.0387  0.0880  0.9781
 A-DIIS (wt  0.015):  0.0000  0.0000  0.0000  1.0000
  DIIS coefficients: -0.0269 -0.0382  0.0867  0.9784
 SCF Error: norm([F,P])=      0.009456277958, max([F,P])=      0.002513754160
 ***** SPIN 1 *****
 orbitals (Q,E):
 ---------------
 A :1...7            ( 1.00   -10.2033)  ( 1.00    -0.7170)  ( 1.00    -0.4581)  ( 1.00    -0.4297)
                     ( 1.00    -0.4296)  ( 1.00    -0.2224)  ( 0.00     0.0500)
 ***** SPIN 2 *****
 orbitals (Q,E):
 ---------------
 A :1...6            ( 1.00   -10.1930)  ( 1.00    -0.6899)  ( 1.00    -0.4217)  ( 1.00    -0.4217)
                     ( 1.00    -0.4167)  ( 0.00    -0.0902)
  
 Spin polar: 1 (Spin_A minus Spin_B electrons)

 CYCLE    6
  SDIIS (wt  1.000):  0.0018 -0.0035 -0.0836 -0.0210  1.1063
  DIIS coefficients:  0.0018 -0.0035 -0.0836 -0.0210  1.1063
 SCF Error: norm([F,P])=      0.001768951376, max([F,P])=      0.000475527488
 ***** SPIN 1 *****
 orbitals (Q,E):
 ---------------
 A :1...7            ( 1.00   -10.2031)  ( 1.00    -0.7168)  ( 1.00    -0.4582)  ( 1.00    -0.4293)
                     ( 1.00    -0.4292)  ( 1.00    -0.2228)  ( 0.00     0.0503)
 ***** SPIN 2 *****
 orbitals (Q,E):
 ---------------
 A :1...6            ( 1.00   -10.1926)  ( 1.00    -0.6894)  ( 1.00    -0.4213)  ( 1.00    -0.4212)
                     ( 1.00    -0.4172)  ( 0.00    -0.0901)
  
 Spin polar: 1 (Spin_A minus Spin_B electrons)

 CYCLE    7
  SDIIS (wt  1.000):  0.0005  0.0009  0.0037 -0.0151 -0.0830  1.0931
  DIIS coefficients:  0.0005  0.0009  0.0037 -0.0151 -0.0830  1.0931
 SCF Error: norm([F,P])=      0.000207365672, max([F,P])=      0.000043495218
 ***** SPIN 1 *****
 orbitals (Q,E):
 ---------------
 A :1...7            ( 1.00   -10.2032)  ( 1.00    -0.7168)  ( 1.00    -0.4582)  ( 1.00    -0.4293)
                     ( 1.00    -0.4292)  ( 1.00    -0.2228)  ( 0.00     0.0503)
 ***** SPIN 2 *****
 orbitals (Q,E):
 ---------------
 A :1...6            ( 1.00   -10.1927)  ( 1.00    -0.6894)  ( 1.00    -0.4213)  ( 1.00    -0.4213)
                     ( 1.00    -0.4172)  ( 0.00    -0.0901)
  
 Spin polar: 1 (Spin_A minus Spin_B electrons)

 CYCLE    8
  SDIIS (wt  1.000): -0.0001  0.0003  0.0044  0.0003 -0.0582  0.0170  1.0363
  DIIS coefficients: -0.0001  0.0003  0.0044  0.0003 -0.0582  0.0170  1.0363
 SCF Error: norm([F,P])=      0.000062139149, max([F,P])=      0.000016389102
 ***** SPIN 1 *****
 orbitals (Q,E):
 ---------------
 A :1...7            ( 1.00   -10.2032)  ( 1.00    -0.7168)  ( 1.00    -0.4582)  ( 1.00    -0.4293)
                     ( 1.00    -0.4292)  ( 1.00    -0.2228)  ( 0.00     0.0503)
 ***** SPIN 2 *****
 orbitals (Q,E):
 ---------------
 A :1...6            ( 1.00   -10.1927)  ( 1.00    -0.6894)  ( 1.00    -0.4213)  ( 1.00    -0.4213)
                     ( 1.00    -0.4172)  ( 0.00    -0.0901)
  
 Spin polar: 1 (Spin_A minus Spin_B electrons)

 CYCLE    9
  SDIIS (wt  1.000): -0.0000 -0.0001 -0.0005  0.0008  0.0096 -0.0822 -0.0806  1.1530
  DIIS coefficients: -0.0000 -0.0001 -0.0005  0.0008  0.0096 -0.0822 -0.0806  1.1530
 SCF Error: norm([F,P])=      0.000014848084, max([F,P])=      0.000004025280
 ***** SPIN 1 *****
 orbitals (Q,E):
 ---------------
 A :1...7            ( 1.00   -10.2032)  ( 1.00    -0.7168)  ( 1.00    -0.4582)  ( 1.00    -0.4293)
                     ( 1.00    -0.4292)  ( 1.00    -0.2228)  ( 0.00     0.0503)
 ***** SPIN 2 *****
 orbitals (Q,E):
 ---------------
 A :1...6            ( 1.00   -10.1927)  ( 1.00    -0.6894)  ( 1.00    -0.4213)  ( 1.00    -0.4213)
                     ( 1.00    -0.4172)  ( 0.00    -0.0901)
  
 Spin polar: 1 (Spin_A minus Spin_B electrons)

 CYCLE   10
  SDIIS (wt  1.000):  0.0000 -0.0000 -0.0000 -0.0002  0.0005  0.0086 -0.0142 -0.1115  1.1168
  DIIS coefficients:  0.0000 -0.0000 -0.0000 -0.0002  0.0005  0.0086 -0.0142 -0.1115  1.1168
 SCF Error: norm([F,P])=      0.000002683815, max([F,P])=      0.000000767513
 ***** SPIN 1 *****
 orbitals (Q,E):
 ---------------
 A :1...7            ( 1.00   -10.2032)  ( 1.00    -0.7168)  ( 1.00    -0.4582)  ( 1.00    -0.4293)
                     ( 1.00    -0.4292)  ( 1.00    -0.2228)  ( 0.00     0.0503)
 ***** SPIN 2 *****
 orbitals (Q,E):
 ---------------
 A :1...6            ( 1.00   -10.1927)  ( 1.00    -0.6894)  ( 1.00    -0.4213)  ( 1.00    -0.4213)
                     ( 1.00    -0.4172)  ( 0.00    -0.0901)
  
 Spin polar: 1 (Spin_A minus Spin_B electrons)

 SCF CONVERGED

 CYCLE   11
1
 ***************************************************************************************************



                                                *******************
                                                *  R E S U L T S  *
                                                *******************
  
  
 Hartree-Fock exchange energy:   -6.80195691303244     
 *** Using FIT density in Focky
  SDIIS (wt  1.000): -0.0000  0.0000  0.0000  0.0000 -0.0004 -0.0000  0.0059 -0.0068 -0.3018  1.3030
  DIIS coefficients: -0.0000  0.0000  0.0000  0.0000 -0.0004 -0.0000  0.0059 -0.0068 -0.3018  1.3030
 SCF Error: norm([F,P])=      0.000000431778, max([F,P])=      0.000000113613


                                   ***** SPIN 1 *****

 Orbital Energies, per Irrep and Spin:
 ======================================
                        Occup              E (au)              E (eV)       Diff (eV) with prev. cycle
                        -----      --------------------        ------       --------------------------
 A
               1        1.000     -0.10203194605035E+02      -277.643               1.60E-06
               2        1.000     -0.71678869721933E+00       -19.505               3.26E-07
               3        1.000     -0.45823326680110E+00       -12.469               4.73E-06
               4        1.000     -0.42931684891918E+00       -11.682               9.68E-07
               5        1.000     -0.42923677200175E+00       -11.680               9.61E-07
               6        1.000     -0.22281342993591E+00        -6.063               2.22E-06
               7        0.000      0.50272992687818E-01         1.368
               8        0.000      0.14689107615372E+00         3.997
               9        0.000      0.14696368159943E+00         3.999
              10        0.000      0.17309729358916E+00         4.710
              11        0.000      0.42697704150384E+00        11.619
              12        0.000      0.42731320678604E+00        11.628
              13        0.000      0.43564897150822E+00        11.855
              14        0.000      0.53364862746319E+00        14.521
              15        0.000      0.81163403645116E+00        22.086
              16        0.000      0.92397568843284E+00        25.143
  
 HOMO :        6 A                -0.22281342993591E+00
 LUMO :        7 A                 0.50272992687818E-01
  


                                   ***** SPIN 2 *****

 Orbital Energies, per Irrep and Spin:
 ======================================
                        Occup              E (au)              E (eV)       Diff (eV) with prev. cycle
                        -----      --------------------        ------       --------------------------
 A
               1        1.000     -0.10192667471252E+02      -277.357               3.30E-06
               2        1.000     -0.68941787032792E+00       -18.760               3.18E-06
               3        1.000     -0.42133337153031E+00       -11.465               1.97E-06
               4        1.000     -0.42125136949171E+00       -11.463               1.97E-06
               5        1.000     -0.41719389269375E+00       -11.352               2.30E-06
               6        0.000     -0.90139747810245E-01        -2.453
               7        0.000      0.57172945342456E-01         1.556
               8        0.000      0.15316895097793E+00         4.168
               9        0.000      0.15320332502358E+00         4.169
              10        0.000      0.19563638253325E+00         5.324
              11        0.000      0.42835300387313E+00        11.656
              12        0.000      0.42863733530459E+00        11.664
              13        0.000      0.47881132668821E+00        13.029
              14        0.000      0.57228912615930E+00        15.573
              15        0.000      0.83829411496345E+00        22.811
  
 HOMO :        5 A                -0.41719389269375E+00
 LUMO :        6 A                -0.90139747810245E-01
  


 Orbital Energies, both Spins
 ========================================

 Irrep        no.  (spin)   Occup              E (au)                E (eV)
 ---------------------------------------------------------------------------
 A             1     A       1.00       -0.10203194605035E+02      -277.6431
 A             1      B      1.00       -0.10192667471252E+02      -277.3566
 A             2     A       1.00       -0.71678869721933E+00       -19.5048
 A             2      B      1.00       -0.68941787032792E+00       -18.7600
 A             3     A       1.00       -0.45823326680110E+00       -12.4692
 A             4     A       1.00       -0.42931684891918E+00       -11.6823
 A             5     A       1.00       -0.42923677200175E+00       -11.6801
 A             3      B      1.00       -0.42133337153031E+00       -11.4651
 A             4      B      1.00       -0.42125136949171E+00       -11.4628
 A             5      B      1.00       -0.41719389269375E+00       -11.3524
 A             6     A       1.00       -0.22281342993591E+00        -6.0631
 A             6      B      0.00       -0.90139747810245E-01        -2.4528
 A             7     A       0.00        0.50272992687818E-01         1.3680
 A             7      B      0.00        0.57172945342456E-01         1.5558
 A             8     A       0.00        0.14689107615372E+00         3.9971
 A             9     A       0.00        0.14696368159943E+00         3.9991
 A             8      B      0.00        0.15316895097793E+00         4.1679
 A             9      B      0.00        0.15320332502358E+00         4.1689
 A            10     A       0.00        0.17309729358916E+00         4.7102
 A            10      B      0.00        0.19563638253325E+00         5.3235
 A            11     A       0.00        0.42697704150384E+00        11.6186
 A            12     A       0.00        0.42731320678604E+00        11.6278
 A            11      B      0.00        0.42835300387313E+00        11.6561
 A            12      B      0.00        0.42863733530459E+00        11.6638
 A            13     A       0.00        0.43564897150822E+00        11.8546
 A            13      B      0.00        0.47881132668821E+00        13.0291
 A            14     A       0.00        0.53364862746319E+00        14.5213
 A            14      B      0.00        0.57228912615930E+00        15.5728
 A            15     A       0.00        0.81163403645116E+00        22.0857
 A            15      B      0.00        0.83829411496345E+00        22.8111
 A            16     A       0.00        0.92397568843284E+00        25.1427
 A            17     A       0.00        0.92417967125693E+00        25.1482
 A            16      B      0.00        0.93181072198891E+00        25.3559
 A            17      B      0.00        0.93196727270975E+00        25.3601
 A            18     A       0.00        0.10853001507967E+01        29.5325
 A            18      B      0.00        0.10974570781041E+01        29.8633
 A            19     A       0.00        0.12955420297810E+01        35.2535
 A            19      B      0.00        0.13157556034064E+01        35.8035
 A            20     A       0.00        0.24384691702668E+02       663.5412
 A            20      B      0.00        0.24396776216302E+02       663.8701
  
 Spin polar: 1 (Spin_A minus Spin_B electrons)


 All Electron Calculation, thus no Orbital Energies of the Core Orbitals are calculated


 Fit test: (difference of exact and fit density, squared integrated, result summed over spins)
         Sum-of-Fragments:                             0.00000000008028
         Orthogonalized Fragments:                     0.00009308423137
         SCF:                                          0.00028364656534



 ==========================
 Electron Density at Nuclei
 ==========================
  
 The electron density is calculated at points on a small sphere around the center of a nucleus.
 The printed electron density is the average electron density on these points.
 The radius of the sphere is the printed approximate finite nuclear radius.

         Atom        Nuclear Radius (Angstrom)             Electron Density (a.u.)
         ----        -------------------------             -----------------------
     1)   C                 0.0000320678                              126.11999
     2)   H                 0.0000181514                                0.50965
     3)   H                 0.0000181514                                0.51011
     4)   H                 0.0000181514                                0.50986
     5)   H                 0.0000181514                                0.43697
     6)   H                 0.0000181514                                0.42370



 =======================================
 M U L L I K E N   P O P U L A T I O N S
 =======================================
  
 The survey below gives for each atom:
 a) the total charge (Z minus electrons)
 b) the net spin polarization (nr of electrons spin-A minus spin-B)
 c) for each spin the atomic electron valence density (integrated) per L-value.

 Atom              Charge    Spin density          S         P         D         F
 ----              ------    ------------       ------    ------    ------    ------
 1 C              -0.6743          0.7061   A:  1.7174    1.9728    0.0000    0.0000
                                            B:  1.6505    1.3336    0.0000    0.0000
 2 H               0.2247         -0.0285   A:  0.3734    0.0000    0.0000    0.0000
                                            B:  0.4019    0.0000    0.0000    0.0000
 3 H               0.2241         -0.0285   A:  0.3737    0.0000    0.0000    0.0000
                                            B:  0.4022    0.0000    0.0000    0.0000
 4 H               0.2246         -0.0285   A:  0.3734    0.0000    0.0000    0.0000
                                            B:  0.4020    0.0000    0.0000    0.0000
 5 H              -0.0024         -0.1591   A:  0.4216    0.0000    0.0000    0.0000
                                            B:  0.5807    0.0000    0.0000    0.0000
 6 H               0.0032          0.5386   A:  0.7677    0.0000    0.0000    0.0000
                                            B:  0.2291    0.0000    0.0000    0.0000

 Populations of individual BAS functions
 ----------------------------------------
 1 C            0.2380  0.7552  0.4771  0.2471  0.3172  0.3438  0.3126  0.3113  0.3901  0.2977
         B:     0.2383  0.7558  0.4350  0.2214  0.2611  0.1490  0.2808  0.2401  0.1458  0.2568
 2 H           -0.0943  0.4677
         B:    -0.0744  0.4763
 3 H           -0.0944  0.4681
         B:    -0.0744  0.4766
 4 H           -0.0945  0.4679
         B:    -0.0745  0.4765
 5 H            0.0346  0.3871
         B:     0.1854  0.3953
 6 H            0.3381  0.4296
         B:    -0.0300  0.2591

 Gross Charges per Atom (Z minus electrons)
 ==========================================
            -0.6743    0.2247    0.2241    0.2246   -0.0024    0.0032
 Net Total:  0.00000000


 Atom-Atom Population Matrix (off-diagonal elements not doubled)
 ===============================================================


                                   ***** SPIN 1 *****

     1 :     3.3034
     2 :     0.1788    0.2008
     3 :     0.1789   -0.0030    0.2011
     4 :     0.1789   -0.0029   -0.0030    0.2009
     5 :     0.0702   -0.0040   -0.0040   -0.0040    0.2333
     6 :    -0.2200    0.0036    0.0036    0.0036    0.1302    0.8466

                                   ***** SPIN 2 *****

     1 :     2.3200
     2 :     0.1948    0.2282
     3 :     0.1948   -0.0043    0.2285
     4 :     0.1948   -0.0043   -0.0043    0.2283
     5 :     0.0675   -0.0115   -0.0115   -0.0115    0.4301
     6 :     0.0123   -0.0010   -0.0010   -0.0010    0.1176    0.1022



 =================================================
 H I R S H F E L D   C H A R G E   A N A L Y S I S
 =================================================
  
 For each fragment: the (numerical) integral of rho(scf) * rho(fragment)/rho(sum-of-fragments)
 (nuclear charges are included, electrons are counted negative)

 The fragments and their ordering are defined in the early G E O M E T R Y output section.
 If you use single-atom fragments, this usually implies that all atoms of the same
 chemical type are grouped together. This may not be the order in which you listed them
 in the input file!

    1  C                        -0.0979
    2  H                         0.0443
    3  H                         0.0440
    4  H                         0.0442
    5  H                        -0.0087
    6  H                        -0.0259

 Sum of these charges (accuracy NumInt/Tails) =           0.00001158



 =============================
 V O R O N O I   C H A R G E S
 =============================
  
 For each atom: the (numerical) integral of the total electronic charge density in its Voronoi cell,
 i.e. the region of space that is closer to that atom than to any other atom.
 (cf. Wigner-Seitz cells in crystals)

 Within the Voronoi cell the subintegrals over the atomic sphere and the remaining part are evaluated
 separately to give the numbers of electrons (negative charge) in these regions.
 The net total charge in the cell (including the nuclear charge) is also given.

 Values are provided for
    a) the Initial (sum-of-fragments) density
    b) the Orthogonalized-Fragments density
    c) the SCF density
    d) the Voronoi Deformation Density (VDD): the difference SCF-Initial for the complete atomic cell


  Atom                Initial                    OrthFrag                   SCF
             Sphere RestCell NetTotal   Sphere RestCell NetTotal   Sphere RestCell NetTotal      VDD
 -----       ------------------------   ------------------------   ------------------------    -----
    1 C      -2.255   -2.018    1.727   -2.408   -2.344    1.248   -2.298   -2.106    1.597   -0.131
    2 H      -0.072   -1.405   -0.478   -0.094   -1.260   -0.354   -0.109   -1.324   -0.433    0.045
    3 H      -0.072   -1.416   -0.488   -0.094   -1.265   -0.359   -0.109   -1.330   -0.439    0.049
    4 H      -0.072   -1.410   -0.482   -0.094   -1.262   -0.357   -0.109   -1.327   -0.436    0.046
    5 H      -0.069   -1.187   -0.256   -0.126   -1.019   -0.145   -0.094   -1.140   -0.234    0.022
    6 H      -0.066   -0.958   -0.023   -0.088   -0.944   -0.032   -0.090   -0.965   -0.055   -0.032
 ---------------------------------------------------------------------------------------------------
 Total NetCharge:              -0.000                      0.000                      0.000    0.000
 (accuracy NumInt/Tails)

 Remark: the 'NetTotal' Voronoi charges often do not match the Mulliken and/or Hirshfeld charges very
 well. This is caused by the fact that chemically different atoms are not treated in accordance with
 their relative sizes. (Voronoi cells are defined by boundary planes halfway between the atoms.)
 However, the CHANGES in charge, comparing 'Initial' to 'SCF' for instance, do give a fair indication
 of the flow of charge caused by the relaxation from sum-of-fragments to self-consistency.

 Warning: the absolute accuracy of the VDD charges obtained using the Fuzzy Cells (Becke) integration
 scheme is much poorer than the one obtained with an 'equivalent' Voronoi integration grid. 



 =================================================================
 M U L T I P O L E   D E R I V E D   C H A R G E   A N A L Y S I S
 =================================================================

 This charge analysis uses the atomic multipoles (obtained from the fitted density) up to some level X,
 and reconstructs these multipoles exactly (up to level X) by distributing charges over all atoms.
 This is achieved by using Lagrange multipliers and a weight function to keep the multipoles local.

 Dummy atoms can be included (by setting INCDUM in MDC-block to 1) to obtain a fractional charge.
 This is generally useful and necessary only for small symmetrical molecules, when there are not
 enough degrees of freedom to reconstruct the multipoles.

 Since the atomic multipoles are reconstructed up to level X,
 the molecular multipoles are represented also up to level X.
 The recommended level is to reconstruct up to quadrupole : -> MDC-q charges.

 See: M. Swart, P.Th. van Duijnen, J.G. Snijders, J.Comput.Chem., (2001), p. 79-88.

 ------------------------------------------------------------------------ 
 Atomic electronic multipole moments from SCF equations (a.u.) for spin A
 ------------------------------------------------------------------------ 

   atom        charge        dip-x     dip-y     dip-z      quad-xx   quad-xy   quad-xz   quad-yy   quad-yz   quad-zz
 --------------------------------------------------------------------------------------------------------------------
    1 C     -0.120031     0.002744 -0.003939  0.000692     0.088065  0.140262 -0.045745 -0.233270  0.093039  0.145205
    2 H     -0.039095    -0.011284  0.023116  0.001141    -0.049678  0.019291 -0.007934 -0.094368  0.015887  0.144047
    3 H     -0.039267    -0.003207  0.023037 -0.010918     0.107781  0.021980 -0.050694 -0.094031  0.011713 -0.013750
    4 H     -0.039138    -0.016295  0.016642 -0.011054     0.012914  0.070743  0.021706  0.000615  0.047427 -0.013529
    5 H     -0.033374    -0.000252  0.000235 -0.000100    -0.020651 -0.032908  0.010907  0.054698 -0.021877 -0.034048
    6 H     -0.229095     0.068681 -0.139378  0.046250    -0.014486 -0.022656  0.007599  0.038034 -0.015363 -0.023548

 ------------------------------------------------------------------------ 
 Atomic electronic multipole moments from SCF equations (a.u.) for spin B
 ------------------------------------------------------------------------ 

   atom        charge        dip-x     dip-y     dip-z      quad-xx   quad-xy   quad-xz   quad-yy   quad-yz   quad-zz
 --------------------------------------------------------------------------------------------------------------------
    1 C      0.381324    -0.013658  0.028172 -0.009532    -0.021480 -0.035053  0.011490  0.058490 -0.023372 -0.037010
    2 H     -0.017559     0.004432 -0.008917 -0.010882    -0.060730 -0.007733 -0.001844 -0.043131  0.003657  0.103861
    3 H     -0.017741    -0.008466 -0.008926  0.008249     0.078274  0.000371 -0.039766 -0.042863 -0.008533 -0.035411
    4 H     -0.017650     0.012174  0.001177  0.008101     0.002758  0.039070  0.031071  0.032380  0.026239 -0.035138
    5 H     -0.009573    -0.006148  0.012513 -0.004300    -0.038696 -0.060694  0.020227  0.101761 -0.040907 -0.063065
    6 H      0.181199    -0.020670  0.041917 -0.013941    -0.019141 -0.030316  0.010053  0.050583 -0.020353 -0.031442

 ----------------------------------------------------- 
 MDC atomic charges (includes spinA + spinB electrons)
 ----------------------------------------------------- 

 The MDC-m charges are just the Monopole terms in the multipole expansion, while for the MDC-d charges
 also the Dipoles are reconstructed. The usually preferred charges are the MDC-q charges.
 These reconstruct the Monopoles, Dipoles and Quadrupoles (both atomic AND molecular).

 Given here are the atomic charges of both spins added. These should be compared
 to the values from a "normal" RESTRICTED calculation.

        Atom    Level:     MDC-m        MDC-d        MDC-q
 ---------------------------------------------------------
     1     C            0.261293     0.226206   -47.534743
     2     H           -0.056654    -0.055289    14.073927
     3     H           -0.057008    -0.054790    14.080094
     4     H           -0.056788    -0.055033    14.094992
     5     H           -0.042947     0.042331     2.215991
     6     H           -0.047896    -0.103425     3.069739

 -------------------------------- 
 MDC spin density (spinA - spinB)
 -------------------------------- 
 Reported here are the the number of Alpha-electrons minus the number of Beta-electrons
 per atom, which usually are regarded as spin densities.

        Atom    Level:     MDC-m        MDC-d        MDC-q
 ---------------------------------------------------------
     1     C            0.501355     0.445969    73.631263
     2     H            0.021537     0.040771   -21.630173
     3     H            0.021525     0.040399   -21.625061
     4     H            0.021488     0.040677   -21.608425
     5     H            0.023802    -0.097885    -3.497671
     6     H            0.410294     0.530069    -4.269931

 --------------------------------------------- 
 Represented total molecular multipole moments
 --------------------------------------------- 

 Given here are the Molecular multipole moments from the atomic charges, and from the Fit Density.
 Note that the atomic charges represent the latter, NOT the ones from the Exact density.

 Reported here are the Molecular multipole moments of both spins added.
 They should be compared to the values from a "normal" RESTRICTED calculation.

            Q (a.u.)             Dipole moment (Debye)                                          Quadrupole moment (a.u.)
                                 x         y         z              xx        xy        xz        yy        yz        zz
------------------------------------------------------------------------------------------------------------------------
MDC-m        -0.0000        0.2614   -0.5335    0.1779          0.1949    0.4631   -0.1530   -0.5163    0.3113    0.3214
MDC-d        -0.0000        0.2819   -0.5699    0.1873          0.3012    0.7092   -0.2358   -0.7905    0.4772    0.4893
MDC-q         0.0000        0.2485   -0.6096    0.0728          0.3982    0.8506   -0.1840   -1.0034    0.5848    0.6052
 
Fit.Dens.    -0.0000        0.2819   -0.5699    0.1873          0.4731    1.0692   -0.3517   -1.2500    0.7185    0.7769



 ==========
 S**2 value  ***  see also R. Bulo et al., J.Am.Chem.Soc., 124 (2002) 13903-13910, note (29)  ***
 ==========
  
                                       exact      expectation value

 Total S2 (S squared)                  0.75000             0.75817



 =============
 Dipole Moment  ***  (Debye)  ***
 =============
  
 Vector   :         0.27732855     -0.56556851      0.18762627
 Magnitude:         0.65725374

 This molecular dipole moment is calculated with analytic integration



 =========================================
 Quadrupole Moment (Buckingham convention)  ***  (a.u.)  ***
 =========================================
  
      quad-xx        quad-xy        quad-xz        quad-yy        quad-yz        quad-zz
      0.47189517     1.11647515    -0.36724708    -1.24784314     0.75155795     0.77594798

 This molecular quadrupole moment is calculated with analytic integration
1



 ===========================
 B O N D I N G   E N E R G Y  ***  (decomposition)  ***
 ===========================
  
*** IMPORTANT NOTE ***

The bond energy is computed as an energy difference between molecule and
fragments. In particular when the fragments are single atoms, they are usually
computed as SPHERICALLY SYMMETRIC and SPIN-RESTRICTED. Obviously, this usually
does NOT represent the true atomic groundstate.

To obtain the 'real' bond energy, (atomic) correction terms must be applied
for the true (multiplet) fragment ground state. See ref: E.J.Baerends,
V.Branchadell, M.Sodupe, Chem.Phys.Lett.265 (1997) 481

General theoretical background on the bond energy decomposition scheme used
here (Morokuma-Ziegler) can be found in the review paper:
F.M. Bickelhaupt and E.J. Baerends,
"Kohn-Sham Density Functional Theory: Predicting and Understanding Chemistry"
In: Rev. Comput. Chem.; Lipkowitz, K. B. and Boyd, D. B., Eds.;
Wiley-VCH: New York, 2000, Vol. 15, 1-86.

Symbols used in the Bickelhaupt-Baerends (BB) paper are given below to make
the direct connection to that paper, where detailed explanations can be found
on the meaning of the various terms.


                                                   hartree              eV         kcal/mol           kJ/mol
                                      --------------------     -----------       ----------      -----------
  pauli hf:                              0.155876009267816          4.2416            97.81           409.25
  elstat hf:                            -0.249057827331725         -6.7772          -156.29          -653.90

Pauli Repulsion
  Kinetic (Delta T^0):                   5.431534521628874        147.7996          3408.34         14260.49
  Delta V^Pauli Coulomb:                -2.255576825468489        -61.3774         -1415.40         -5922.02
  Delta V^Pauli Hybrid-X:               -0.568656162152369        -15.4739          -356.84         -1493.01
  Delta V^Pauli Hybrid-C:               -0.057846658798253         -1.5741           -36.30          -151.88
  Delta V^Pauli HF-Exchange:            -0.093181818063910         -2.5356           -58.47          -244.65
                                      --------------------     -----------       ----------      -----------
  Total Pauli Repulsion:                 2.456273057145853         66.8386          1541.33          6448.94
 (Total Pauli Repulsion =
  Delta E^Pauli in BB paper)

Steric Interaction
  Pauli Repulsion (Delta E^Pauli):       2.456273057145853         66.8386          1541.33          6448.94
  Electrostatic Interaction:            -0.325644851260733         -8.8612          -204.35          -854.98
 (Electrostatic Interaction =
  Delta V_elstat in the BB paper)
                                      --------------------     -----------       ----------      -----------
  Total Steric Interaction:              2.130628205885120         57.9773          1336.99          5593.96
 (Total Steric Interaction =
  Delta E^0 in the BB paper)

Orbital Interactions
  A:                                    -3.140694302160351        -85.4626         -1970.82         -8245.89
  HF orbital correction:                -0.000000008597388         -0.0000            -0.00            -0.00
                                      --------------------     -----------       ----------      -----------
  Total Orbital Interactions:           -3.140694310757738        -85.4626         -1970.82         -8245.89

Alternative Decomposition Orb.Int.
  Kinetic:                              -4.405996324623884       -119.8933         -2764.80        -11567.94
  Coulomb:                               1.472490447215508         40.0685           924.00          3866.02
  XC+HF:                                -0.207188433349362         -5.6379          -130.01          -543.97
  XC only:                              -0.010056589948960         -0.2737            -6.31           -26.40
  HF Orbital:                           -0.197131843400402         -5.3642          -123.70          -517.57
                                      --------------------     -----------       ----------      -----------
  Total Orbital Interactions:           -3.140694310757738        -85.4626         -1970.82         -8245.89

  Residu (E=Steric+OrbInt+Res):         -0.000027296456322         -0.0007            -0.02            -0.07

Total Bonding Energy:                   -1.010093401328940        -27.4860          -633.84         -2652.00


Summary of Bonding Energy (energy terms are taken from the energy decomposition above)
======================================================================================

  Electrostatic Energy:                 -0.325644851260733         -8.8612          -204.35          -854.98
  Kinetic Energy:                        1.025538197004990         27.9063           643.54          2692.55
  Coulomb (Steric+OrbInt) Energy:       -0.783113674709303        -21.3096          -491.41         -2056.06
  XC Energy:                            -0.926873072363894        -25.2215          -581.62         -2433.50
                                      --------------------     -----------       ----------      -----------
  Total Bonding Energy:                 -1.010093401328940        -27.4860          -633.84         -2652.00


Correction terms (incorporated in energies above; only for test purposes):

1. Indication of fit-quality: 1st-order fit-correction used in the energy (hartree):   0.0000597781
2. Electrostatic (Fit correction):   0.0000000000
1



 =======================================================
 S F O   P O P U L A T I O N S ,   M O   A N A L Y S I S
 =======================================================
  
 A Mulliken population analysis is performed on (input-)selected MOs. All populations refer to SFOs.
 BAS populations may have been printed directly after the SCF part.



                                   ***** SPIN 1 *****



                                       === A ===


 SFO contributions (%) per orbital
 (multiplication by the orbital occupation yields the SFO Gross Populations)

 Orb.:        1      2      3      4      5      6      7      8      9     10
 occup:     1.00   1.00   1.00   1.00   1.00   1.00   0.00   0.00   0.00   0.00
 CF+SFO     ----   ----   ----   ----   ----   ----   ----   ----   ----   ----
 ------
      1:  100.02   0.00   0.00   0.00   0.00  -0.00  -0.03   0.00  -0.00  -0.00
      2:    0.00  69.63   0.75   0.00   0.00   2.65   9.43   0.00   0.00   0.90
      3:   -0.00  -0.17  -0.04  -0.00  -0.00  -1.10 -34.88  -0.00  -0.00  -2.28
      5:    0.00  -0.00   4.62  41.83   7.30   9.78   0.74  17.87   3.70   4.48
      6:   -0.00   0.00  -0.19  -0.28  -0.05  -0.17  -0.29 -19.20  -3.99  -0.24
      7:    0.00  -0.00  18.85  14.53   1.08  40.52   3.04   1.46   5.38  18.41
      8:   -0.00   0.00  -0.77  -0.10  -0.01  -0.70  -1.18  -1.57  -5.78  -0.98
      9:    0.00  -0.00   2.06   3.55  51.53   4.42   0.33   6.97  17.16   2.02
     10:   -0.00   0.00  -0.08  -0.02  -0.34  -0.08  -0.13  -7.48 -18.50  -0.11
     11:   -0.00   9.49   1.16   1.38  20.11   0.66  27.94  18.07  44.58  -0.15
     12:   -0.00  -1.34   0.47   0.35   5.15  -0.10  12.98   1.54   3.83  -0.20
     13:   -0.00   9.52   1.18  10.84  10.63   0.66  27.98  62.49   0.12  -0.15
     14:   -0.00  -1.34   0.48   2.78   2.73  -0.10  12.99   5.32   0.01  -0.20
     15:   -0.00   9.50   1.15  20.00   1.49   0.66  27.95  13.39  49.27  -0.16
     16:   -0.00  -1.34   0.47   5.13   0.38  -0.10  12.98   1.13   4.22  -0.18
     17:   -0.01   6.32  34.61   0.00   0.00   0.07   0.03   0.00   0.00  52.12
     18:   -0.00  -1.05   1.92   0.00   0.00   0.30   1.52  -0.00  -0.00 -39.85
     19:    0.00   1.11  32.78   0.00   0.00  43.04  -0.92   0.00   0.00  43.07
     20:    0.00  -0.34   0.59   0.00   0.00  -0.41  -0.28   0.00   0.00  23.50


 Summation over all MOs, multiplied by occupation: Total SFO Gross Populations in this Irrep
 ===========================================================================================

     1.00    0.73   -0.01   -0.00    0.64   -0.01    0.75   -0.02    0.62   -0.01    0.33    0.05
     0.33    0.05    0.33    0.05    0.41    0.01    0.77   -0.00



                                   ***** SPIN 2 *****



                                       === A ===


 SFO contributions (%) per orbital
 (multiplication by the orbital occupation yields the SFO Gross Populations)

 Orb.:        1      2      3      4      5      6      7      8      9
 occup:     1.00   1.00   1.00   1.00   1.00   0.00   0.00   0.00   0.00
 CF+SFO     ----   ----   ----   ----   ----   ----   ----   ----   ----
 ------
      1:  100.03   0.00  -0.00  -0.00  -0.00  -0.00  -0.02   0.00  -0.00
      2:    0.00  64.85   0.00  -0.00   0.52   4.72  10.42   0.00   0.00
      3:   -0.00  -0.23  -0.00  -0.00  -0.13  -2.46 -34.12   0.00  -0.00
      5:   -0.00   0.02  36.55  10.75   3.41   9.04   1.20  14.61   8.83
      6:    0.00   0.01  -0.31  -0.09  -0.21  -0.30  -0.36 -14.56  -8.82
      7:   -0.00   0.08  14.10   0.43  15.86  37.42   4.96   0.45   7.00
      8:    0.00   0.04  -0.11  -0.00  -0.92  -1.26  -1.47  -0.44  -6.96
      9:   -0.00   0.01   6.55  46.02   1.72   4.08   0.54  13.54  12.71
     10:    0.00   0.00  -0.06  -0.38  -0.10  -0.14  -0.16 -13.48 -12.72
     11:   -0.01  11.12   2.92  20.50   1.18   1.04  26.42  31.11  29.30
     12:   -0.00  -1.38   0.68   4.74   0.43   0.11  13.06   3.19   3.03
     13:   -0.01  11.15   9.56  14.01   1.05   1.05  26.44  55.86   4.51
     14:   -0.00  -1.39   2.22   3.25   0.39   0.11  13.07   5.75   0.47
     15:   -0.01  11.14  22.66   0.64   1.29   1.04  26.43   3.61  56.80
     16:   -0.00  -1.39   5.24   0.15   0.47   0.11  13.06   0.36   5.86
     17:   -0.01   6.37   0.01   0.00  51.19   0.00  -0.07   0.00   0.00
     18:   -0.00  -1.08   0.00   0.00   1.61   0.34   1.56  -0.00  -0.00
     19:    0.00   0.94   0.00   0.00  22.05  46.15   0.05   0.00   0.00
     20:    0.00  -0.27   0.00   0.00   0.18  -1.05  -0.80   0.00   0.00


 Summation over all MOs, multiplied by occupation: Total SFO Gross Populations in this Irrep
 ===========================================================================================

     1.00    0.65   -0.00    0.00    0.51   -0.01    0.30   -0.01    0.54   -0.01    0.36    0.04
     0.36    0.04    0.36    0.04    0.58    0.01    0.23   -0.00



 List of selected MOs, ordered by energy, with the most significant SFO gross populations
 ========================================================================================

 Each percentage contribution in the table below corres ponds to the indicated SFO.
 In general, a SFO may be a linear combination of several Fragment Orbitals on the same,
 or on symmetry-related Fragments. Only the first 'member' of such a combination is
 specified here. A full definition of all SFOs is given in an earlier part of the output.
 The numbering of the SFOs in this table does NOT include the Core Orbitals, and starts
 from one for each symmetry representation, as in the SFO definition list earlier.


                                       *** SPIN 1 ***


       E(eV)  Occ       MO           %     SFO (first member)   E(eV)  Occ   Fragment
 -------------------------------------------------------------------------------------

     -19.505  1.00     2 A         69.63%     2 S             -15.403  2.00     1 C
                                    9.52%     1 S              -6.637  1.00     3 H
                                    9.50%     1 S              -6.637  1.00     4 H
                                    9.49%     1 S              -6.637  1.00     2 H
                                    6.32%     1 S              -6.637  1.00     5 H
                                   -1.34%     2 S              11.415  0.00     4 H
                                   -1.34%     2 S              11.415  0.00     3 H
                                   -1.34%     2 S              11.415  0.00     2 H
                                    1.11%     1 S              -6.637  1.00     6 H
                                   -1.05%     2 S              11.415  0.00     5 H
     -12.469  1.00     3 A         34.61%     1 S              -6.637  1.00     5 H
                                   32.78%     1 S              -6.637  1.00     6 H
                                   18.85%     1 P:y            -5.117  0.67     1 C
                                    4.62%     1 P:x            -5.117  0.67     1 C
                                    2.06%     1 P:z            -5.117  0.67     1 C
                                    1.92%     2 S              11.415  0.00     5 H
                                    1.18%     1 S              -6.637  1.00     3 H
                                    1.16%     1 S              -6.637  1.00     2 H
                                    1.15%     1 S              -6.637  1.00     4 H
     -11.682  1.00     4 A         41.83%     1 P:x            -5.117  0.67     1 C
                                   20.00%     1 S              -6.637  1.00     4 H
                                   14.53%     1 P:y            -5.117  0.67     1 C
                                   10.84%     1 S              -6.637  1.00     3 H
                                    5.13%     2 S              11.415  0.00     4 H
                                    3.55%     1 P:z            -5.117  0.67     1 C
                                    2.78%     2 S              11.415  0.00     3 H
                                    1.38%     1 S              -6.637  1.00     2 H
     -11.680  1.00     5 A         51.53%     1 P:z            -5.117  0.67     1 C
                                   20.11%     1 S              -6.637  1.00     2 H
                                   10.63%     1 S              -6.637  1.00     3 H
                                    7.30%     1 P:x            -5.117  0.67     1 C
                                    5.15%     2 S              11.415  0.00     2 H
                                    2.73%     2 S              11.415  0.00     3 H
                                    1.49%     1 S              -6.637  1.00     4 H
                                    1.08%     1 P:y            -5.117  0.67     1 C
      -6.063  1.00     6 A         43.04%     1 S              -6.637  1.00     6 H
                                   40.52%     1 P:y            -5.117  0.67     1 C
                                    9.78%     1 P:x            -5.117  0.67     1 C
                                    4.42%     1 P:z            -5.117  0.67     1 C
                                    2.65%     2 S             -15.403  2.00     1 C
                                   -1.10%     3 S              11.952  0.00     1 C
       1.368  0.00     7 A        -34.88%     3 S              11.952  0.00     1 C
                                   27.98%     1 S              -6.637  1.00     3 H
                                   27.95%     1 S              -6.637  1.00     4 H
                                   27.94%     1 S              -6.637  1.00     2 H
                                   12.99%     2 S              11.415  0.00     3 H
                                   12.98%     2 S              11.415  0.00     2 H
                                   12.98%     2 S              11.415  0.00     4 H
                                    9.43%     2 S             -15.403  2.00     1 C
                                    3.04%     1 P:y            -5.117  0.67     1 C
                                    1.52%     2 S              11.415  0.00     5 H
                                   -1.18%     2 P:y            13.170  0.00     1 C
       3.997  0.00     8 A         62.49%     1 S              -6.637  1.00     3 H
                                  -19.20%     2 P:x            13.170  0.00     1 C
                                   18.07%     1 S              -6.637  1.00     2 H
                                   17.87%     1 P:x            -5.117  0.67     1 C
                                   13.39%     1 S              -6.637  1.00     4 H
                                   -7.48%     2 P:z            13.170  0.00     1 C
                                    6.97%     1 P:z            -5.117  0.67     1 C
                                    5.32%     2 S              11.415  0.00     3 H
                                   -1.57%     2 P:y            13.170  0.00     1 C
                                    1.54%     2 S              11.415  0.00     2 H
                                    1.46%     1 P:y            -5.117  0.67     1 C
                                    1.13%     2 S              11.415  0.00     4 H
       3.999  0.00     9 A         49.27%     1 S              -6.637  1.00     4 H
                                   44.58%     1 S              -6.637  1.00     2 H
                                  -18.50%     2 P:z            13.170  0.00     1 C
                                   17.16%     1 P:z            -5.117  0.67     1 C
                                   -5.78%     2 P:y            13.170  0.00     1 C
                                    5.38%     1 P:y            -5.117  0.67     1 C
                                    4.22%     2 S              11.415  0.00     4 H
                                   -3.99%     2 P:x            13.170  0.00     1 C
                                    3.83%     2 S              11.415  0.00     2 H
                                    3.70%     1 P:x            -5.117  0.67     1 C
       4.710  0.00    10 A         52.12%     1 S              -6.637  1.00     5 H
                                   43.07%     1 S              -6.637  1.00     6 H
                                  -39.85%     2 S              11.415  0.00     5 H
                                   23.50%     2 S              11.415  0.00     6 H
                                   18.41%     1 P:y            -5.117  0.67     1 C
                                    4.48%     1 P:x            -5.117  0.67     1 C
                                   -2.28%     3 S              11.952  0.00     1 C
                                    2.02%     1 P:z            -5.117  0.67     1 C


                                       *** SPIN 2 ***


       E(eV)  Occ       MO           %     SFO (first member)   E(eV)  Occ   Fragment
 -------------------------------------------------------------------------------------

     -18.760  1.00     2 A         64.85%     2 S             -15.403  2.00     1 C
                                   11.15%     1 S              -6.637  1.00     3 H
                                   11.14%     1 S              -6.637  1.00     4 H
                                   11.12%     1 S              -6.637  1.00     2 H
                                    6.37%     1 S              -6.637  1.00     5 H
                                   -1.39%     2 S              11.415  0.00     4 H
                                   -1.39%     2 S              11.415  0.00     3 H
                                   -1.38%     2 S              11.415  0.00     2 H
                                   -1.08%     2 S              11.415  0.00     5 H
     -11.465  1.00     3 A         36.55%     1 P:x            -5.117  0.67     1 C
                                   22.66%     1 S              -6.637  1.00     4 H
                                   14.10%     1 P:y            -5.117  0.67     1 C
                                    9.56%     1 S              -6.637  1.00     3 H
                                    6.55%     1 P:z            -5.117  0.67     1 C
                                    5.24%     2 S              11.415  0.00     4 H
                                    2.92%     1 S              -6.637  1.00     2 H
                                    2.22%     2 S              11.415  0.00     3 H
     -11.463  1.00     4 A         46.02%     1 P:z            -5.117  0.67     1 C
                                   20.50%     1 S              -6.637  1.00     2 H
                                   14.01%     1 S              -6.637  1.00     3 H
                                   10.75%     1 P:x            -5.117  0.67     1 C
                                    4.74%     2 S              11.415  0.00     2 H
                                    3.25%     2 S              11.415  0.00     3 H
     -11.352  1.00     5 A         51.19%     1 S              -6.637  1.00     5 H
                                   22.05%     1 S              -6.637  1.00     6 H
                                   15.86%     1 P:y            -5.117  0.67     1 C
                                    3.41%     1 P:x            -5.117  0.67     1 C
                                    1.72%     1 P:z            -5.117  0.67     1 C
                                    1.61%     2 S              11.415  0.00     5 H
                                    1.29%     1 S              -6.637  1.00     4 H
                                    1.18%     1 S              -6.637  1.00     2 H
                                    1.05%     1 S              -6.637  1.00     3 H
      -2.453  0.00     6 A         46.15%     1 S              -6.637  1.00     6 H
                                   37.42%     1 P:y            -5.117  0.67     1 C
                                    9.04%     1 P:x            -5.117  0.67     1 C
                                    4.72%     2 S             -15.403  2.00     1 C
                                    4.08%     1 P:z            -5.117  0.67     1 C
                                   -2.46%     3 S              11.952  0.00     1 C
                                   -1.26%     2 P:y            13.170  0.00     1 C
                                    1.05%     1 S              -6.637  1.00     3 H
                                   -1.05%     2 S              11.415  0.00     6 H
                                    1.04%     1 S              -6.637  1.00     2 H
                                    1.04%     1 S              -6.637  1.00     4 H
       1.556  0.00     7 A        -34.12%     3 S              11.952  0.00     1 C
                                   26.44%     1 S              -6.637  1.00     3 H
                                   26.43%     1 S              -6.637  1.00     4 H
                                   26.42%     1 S              -6.637  1.00     2 H
                                   13.07%     2 S              11.415  0.00     3 H
                                   13.06%     2 S              11.415  0.00     2 H
                                   13.06%     2 S              11.415  0.00     4 H
                                   10.42%     2 S             -15.403  2.00     1 C
                                    4.96%     1 P:y            -5.117  0.67     1 C
                                    1.56%     2 S              11.415  0.00     5 H
                                   -1.47%     2 P:y            13.170  0.00     1 C
                                    1.20%     1 P:x            -5.117  0.67     1 C
       4.168  0.00     8 A         55.86%     1 S              -6.637  1.00     3 H
                                   31.11%     1 S              -6.637  1.00     2 H
                                   14.61%     1 P:x            -5.117  0.67     1 C
                                  -14.56%     2 P:x            13.170  0.00     1 C
                                   13.54%     1 P:z            -5.117  0.67     1 C
                                  -13.48%     2 P:z            13.170  0.00     1 C
                                    5.75%     2 S              11.415  0.00     3 H
                                    3.61%     1 S              -6.637  1.00     4 H
                                    3.19%     2 S              11.415  0.00     2 H
       4.169  0.00     9 A         56.80%     1 S              -6.637  1.00     4 H
                                   29.30%     1 S              -6.637  1.00     2 H
                                  -12.72%     2 P:z            13.170  0.00     1 C
                                   12.71%     1 P:z            -5.117  0.67     1 C
                                    8.83%     1 P:x            -5.117  0.67     1 C
                                   -8.82%     2 P:x            13.170  0.00     1 C
                                    7.00%     1 P:y            -5.117  0.67     1 C
                                   -6.96%     2 P:y            13.170  0.00     1 C
                                    5.86%     2 S              11.415  0.00     4 H
                                    4.51%     1 S              -6.637  1.00     3 H
                                    3.03%     2 S              11.415  0.00     2 H
       5.324  0.00    10 A         46.64%     1 S              -6.637  1.00     6 H
                                  -37.24%     2 S              11.415  0.00     5 H
                                   33.88%     1 S              -6.637  1.00     5 H
                                   26.04%     2 S              11.415  0.00     6 H
                                   23.39%     1 P:y            -5.117  0.67     1 C
                                    5.70%     1 P:x            -5.117  0.67     1 C
                                    2.56%     1 P:z            -5.117  0.67     1 C
                                   -2.26%     3 S              11.952  0.00     1 C
                                    1.30%     2 S             -15.403  2.00     1 C

 Energy gradients wrt nuclear displacements
 ==========================================

     Atom      Cartesian (a.u./angstrom)
                 X         Y         Z
 ----------------------------------------
     1 C     0.000016 -0.000038  0.000045
     2 H     0.000115  0.000114  0.000017
     3 H    -0.000045 -0.000077 -0.000089
     4 H    -0.000077 -0.000003  0.000164
     5 H    -0.000029  0.000046 -0.000052
     6 H     0.000020 -0.000042 -0.000086
 ----------------------------------------



 =======================================================================
 Electrostatic potential at the Nuclei due to electrons and other nuclei
 =======================================================================
  
         Atom                  Potential
         ----                  ---------
     1)   C                  14.74792324
[...]
     19:    0.00  -0.02   0.02   1.63  47.81   0.37   3.72  59.67   0.01   0.00
     20:    0.00  -0.02   0.00   0.02   0.90   0.06  -2.52  -1.04   0.03   0.00


 Summation over all MOs, multiplied by occupation: Total SFO Gross Populations in this Irrep
 ===========================================================================================

     1.00    0.73   -0.00    0.00    0.67   -0.00    0.87   -0.00    0.65   -0.00    0.32    0.04
     0.32    0.04    0.32    0.04    0.48    0.01    0.50    0.01



                                   ***** SPIN 2 *****



                                       === A ===


 SFO contributions (%) per orbital
 (multiplication by the orbital occupation yields the SFO Gross Populations)

 Orb.:        1      2      3      4      5      6      7      8      9
 occup:     1.00   1.00   1.00   1.00   1.00   0.00   0.00   0.00   0.00
 CF+SFO     ----   ----   ----   ----   ----   ----   ----   ----   ----
 ------
      1:  100.02   0.00   0.00  -0.00   0.00   0.00  -0.02  -0.00  -0.00
      2:    0.00  64.36   0.00   0.00   0.00   0.01  14.16   4.45  -0.00
      3:   -0.00  -0.29   0.01   0.00   0.00   0.00 -31.85  -3.64  -0.00
      5:   -0.00   0.00   0.02  45.30   0.12  17.29   0.06   0.56   0.12
      7:   -0.00   0.00   0.37   9.39   7.58  65.77   0.23   2.27   3.40
      8:    0.00  -0.00  -0.02  -0.09  -0.05   1.00  -0.04  -0.10  -4.07
      9:   -0.00   0.00   0.26   0.79  47.24  12.37   0.04   0.38  22.07
     10:    0.00  -0.00   0.02  -0.01  -0.48   0.19  -0.01  -0.01 -25.94
     11:   -0.01  13.18   0.23   0.37  23.85   0.00  22.49   3.47  59.27
     12:   -0.00  -1.26  -0.05   0.08   5.56  -0.00  12.33   0.24   9.78
     13:   -0.01  13.21   0.01  20.73   3.71   0.00  22.58   3.59  10.01
     14:   -0.00  -1.26   0.06   4.74   0.80  -0.00  12.35   0.33   1.63
     15:   -0.01  13.19   0.07  15.59   8.79   0.00  22.50   3.84  20.47
     16:   -0.00  -1.26   0.10   3.55   1.94  -0.00  12.26   0.43   3.36
     17:   -0.00   0.10  48.55   0.00   0.44   1.39   8.60  42.91  -0.01
     18:   -0.00   0.04   0.92   0.00   0.02   1.04   2.64 -19.68   0.01
     19:    0.00  -0.01  48.53   0.00   0.46   1.25   4.73  59.54   0.01
     20:    0.00  -0.02   0.91   0.00   0.02  -0.56  -2.85   1.46   0.03


 Summation over all MOs, multiplied by occupation: Total SFO Gross Populations in this Irrep
 ===========================================================================================

     1.00    0.64   -0.00    0.00    0.45   -0.00    0.17   -0.00    0.48   -0.00    0.38    0.04
     0.38    0.04    0.38    0.04    0.49    0.01    0.49    0.01



 List of selected MOs, ordered by energy, with the most significant SFO gross populations
 ========================================================================================

 Each percentage contribution in the table below corres ponds to the indicated SFO.
 In general, a SFO may be a linear combination of several Fragment Orbitals on the same,
 or on symmetry-related Fragments. Only the first 'member' of such a combination is
 specified here. A full definition of all SFOs is given in an earlier part of the output.
 The numbering of the SFOs in this table does NOT include the Core Orbitals, and starts
 from one for each symmetry representation, as in the SFO definition list earlier.


                                       *** SPIN 1 ***


       E(eV)  Occ       MO           %     SFO (first member)   E(eV)  Occ   Fragment
 -------------------------------------------------------------------------------------

     -19.015  1.00     2 A         72.61%     2 S             -15.403  2.00     1 C
                                   10.35%     1 S              -6.637  1.00     3 H
                                   10.34%     1 S              -6.637  1.00     4 H
                                   10.32%     1 S              -6.637  1.00     2 H
                                   -1.23%     2 S              11.415  0.00     2 H
                                   -1.23%     2 S              11.415  0.00     3 H
                                   -1.22%     2 S              11.415  0.00     4 H
     -11.782  1.00     3 A         47.84%     1 P:x            -5.117  0.67     1 C
                                   17.14%     1 S              -6.637  1.00     3 H
                                   15.18%     1 S              -6.637  1.00     4 H
                                   11.44%     1 P:y            -5.117  0.67     1 C
                                    4.49%     2 S              11.415  0.00     3 H
                                    4.01%     2 S              11.415  0.00     4 H
     -11.777  1.00     4 A         49.35%     1 P:z            -5.117  0.67     1 C
                                   20.91%     1 S              -6.637  1.00     2 H
                                    7.34%     1 P:y            -5.117  0.67     1 C
                                    6.10%     1 S              -6.637  1.00     4 H
                                    5.24%     2 S              11.415  0.00     2 H
                                    4.35%     1 S              -6.637  1.00     3 H
                                    1.72%     2 S              11.415  0.00     4 H
                                    1.63%     1 S              -6.637  1.00     5 H
                                    1.63%     1 S              -6.637  1.00     6 H
                                    1.24%     2 S              11.415  0.00     3 H
     -11.690  1.00     5 A         47.81%     1 S              -6.637  1.00     6 H
                                   46.67%     1 S              -6.637  1.00     5 H
                                    2.28%     1 P:z            -5.117  0.67     1 C
      -6.511  1.00     6 A         68.68%     1 P:y            -5.117  0.67     1 C
                                   18.06%     1 P:x            -5.117  0.67     1 C
                                   12.91%     1 P:z            -5.117  0.67     1 C
       1.169  0.00     7 A        -31.72%     3 S              11.952  0.00     1 C
                                   24.95%     1 S              -6.637  1.00     3 H
                                   24.87%     1 S              -6.637  1.00     4 H
                                   24.84%     1 S              -6.637  1.00     2 H
                                   11.81%     2 S              11.415  0.00     3 H
                                   11.77%     2 S              11.415  0.00     2 H
                                   11.73%     2 S              11.415  0.00     4 H
                                   10.62%     2 S             -15.403  2.00     1 C
                                    7.44%     1 S              -6.637  1.00     5 H
                                    3.72%     1 S              -6.637  1.00     6 H
                                    2.71%     2 S              11.415  0.00     5 H
                                   -2.52%     2 S              11.415  0.00     6 H
       2.674  0.00     8 A         59.67%     1 S              -6.637  1.00     6 H
                                   47.00%     1 S              -6.637  1.00     5 H
                                  -18.04%     2 S              11.415  0.00     5 H
                                    3.72%     1 S              -6.637  1.00     4 H
                                    3.46%     1 S              -6.637  1.00     3 H
                                    3.34%     1 S              -6.637  1.00     2 H
                                    3.25%     2 S             -15.403  2.00     1 C
                                   -2.96%     3 S              11.952  0.00     1 C
                                   -1.04%     2 S              11.415  0.00     6 H
       4.192  0.00     9 A         62.65%     1 S              -6.637  1.00     2 H
                                  -25.87%     2 P:z            13.170  0.00     1 C
                                   19.54%     1 P:z            -5.117  0.67     1 C
                                   19.46%     1 S              -6.637  1.00     3 H
                                   12.19%     1 S              -6.637  1.00     4 H
                                    8.67%     2 S              11.415  0.00     2 H
                                    2.67%     2 S              11.415  0.00     3 H
                                   -2.54%     2 P:y            13.170  0.00     1 C
                                    1.89%     1 P:y            -5.117  0.67     1 C
                                    1.67%     2 S              11.415  0.00     4 H
                                   -1.43%     2 P:x            13.170  0.00     1 C
                                    1.07%     1 P:x            -5.117  0.67     1 C
       4.195  0.00    10 A         50.60%     1 S              -6.637  1.00     4 H
                                   43.48%     1 S              -6.637  1.00     3 H
                                  -23.07%     2 P:x            13.170  0.00     1 C
                                   17.30%     1 P:x            -5.117  0.67     1 C
                                    7.06%     2 S              11.415  0.00     4 H
                                   -6.74%     2 P:y            13.170  0.00     1 C
                                    6.03%     2 S              11.415  0.00     3 H
                                    5.04%     1 P:y            -5.117  0.67     1 C


                                       *** SPIN 2 ***


       E(eV)  Occ       MO           %     SFO (first member)   E(eV)  Occ   Fragment
 -------------------------------------------------------------------------------------

     -17.892  1.00     2 A         64.36%     2 S             -15.403  2.00     1 C
                                   13.21%     1 S              -6.637  1.00     3 H
                                   13.19%     1 S              -6.637  1.00     4 H
                                   13.18%     1 S              -6.637  1.00     2 H
                                   -1.26%     2 S              11.415  0.00     2 H
                                   -1.26%     2 S              11.415  0.00     3 H
                                   -1.26%     2 S              11.415  0.00     4 H
     -11.671  1.00     3 A         48.55%     1 S              -6.637  1.00     5 H
                                   48.53%     1 S              -6.637  1.00     6 H
     -11.513  1.00     4 A         45.30%     1 P:x            -5.117  0.67     1 C
                                   20.73%     1 S              -6.637  1.00     3 H
                                   15.59%     1 S              -6.637  1.00     4 H
                                    9.39%     1 P:y            -5.117  0.67     1 C
                                    4.74%     2 S              11.415  0.00     3 H
                                    3.55%     2 S              11.415  0.00     4 H
     -11.504  1.00     5 A         47.24%     1 P:z            -5.117  0.67     1 C
                                   23.85%     1 S              -6.637  1.00     2 H
                                    8.79%     1 S              -6.637  1.00     4 H
                                    7.58%     1 P:y            -5.117  0.67     1 C
                                    5.56%     2 S              11.415  0.00     2 H
                                    3.71%     1 S              -6.637  1.00     3 H
                                    1.94%     2 S              11.415  0.00     4 H
      -2.161  0.00     6 A         65.77%     1 P:y            -5.117  0.67     1 C
                                   17.29%     1 P:x            -5.117  0.67     1 C
                                   12.37%     1 P:z            -5.117  0.67     1 C
                                    1.39%     1 S              -6.637  1.00     5 H
                                    1.25%     1 S              -6.637  1.00     6 H
                                    1.04%     2 S              11.415  0.00     5 H
                                    1.00%     2 P:y            13.170  0.00     1 C
       1.418  0.00     7 A        -31.85%     3 S              11.952  0.00     1 C
                                   22.58%     1 S              -6.637  1.00     3 H
                                   22.50%     1 S              -6.637  1.00     4 H
                                   22.49%     1 S              -6.637  1.00     2 H
                                   14.16%     2 S             -15.403  2.00     1 C
                                   12.35%     2 S              11.415  0.00     3 H
                                   12.33%     2 S              11.415  0.00     2 H
                                   12.26%     2 S              11.415  0.00     4 H
                                    8.60%     1 S              -6.637  1.00     5 H
                                    4.73%     1 S              -6.637  1.00     6 H
                                   -2.85%     2 S              11.415  0.00     6 H
                                    2.64%     2 S              11.415  0.00     5 H
       2.844  0.00     8 A         59.54%     1 S              -6.637  1.00     6 H
                                   42.91%     1 S              -6.637  1.00     5 H
                                  -19.68%     2 S              11.415  0.00     5 H
                                    4.45%     2 S             -15.403  2.00     1 C
                                    3.84%     1 S              -6.637  1.00     4 H
                                   -3.64%     3 S              11.952  0.00     1 C
                                    3.59%     1 S              -6.637  1.00     3 H
                                    3.47%     1 S              -6.637  1.00     2 H
                                    2.27%     1 P:y            -5.117  0.67     1 C
                                    1.46%     2 S              11.415  0.00     6 H
       4.344  0.00     9 A         59.27%     1 S              -6.637  1.00     2 H
                                  -25.94%     2 P:z            13.170  0.00     1 C
                                   22.07%     1 P:z            -5.117  0.67     1 C
                                   20.47%     1 S              -6.637  1.00     4 H
                                   10.01%     1 S              -6.637  1.00     3 H
                                    9.78%     2 S              11.415  0.00     2 H
                                   -4.07%     2 P:y            13.170  0.00     1 C
                                    3.40%     1 P:y            -5.117  0.67     1 C
                                    3.36%     2 S              11.415  0.00     4 H
                                    1.63%     2 S              11.415  0.00     3 H
       4.346  0.00    10 A         49.90%     1 S              -6.637  1.00     3 H
                                   39.29%     1 S              -6.637  1.00     4 H
                                  -24.61%     2 P:x            13.170  0.00     1 C
                                   20.81%     1 P:x            -5.117  0.67     1 C
                                    8.25%     2 S              11.415  0.00     3 H
                                    6.54%     2 S              11.415  0.00     4 H
                                   -5.30%     2 P:y            13.170  0.00     1 C
                                    4.45%     1 P:y            -5.117  0.67     1 C

 Energy gradients wrt nuclear displacements
 ==========================================

     Atom      Cartesian (a.u./angstrom)
                 X         Y         Z
 ----------------------------------------
     1 C    -0.000174 -0.000082 -0.000320
     2 H     0.000229  0.000204  0.000336
     3 H     0.000159 -0.000056 -0.000143
     4 H    -0.000313 -0.000034  0.000191
     5 H     0.000061  0.000014 -0.000092
     6 H     0.000038 -0.000046  0.000028
 ----------------------------------------



 =======================================================================
 Electrostatic potential at the Nuclei due to electrons and other nuclei
 =======================================================================
  
         Atom                  Potential
         ----                  ---------
     1)   C                  14.74976476
     2)   H                   1.09066443
     3)   H                   1.08968629
     4)   H                   1.09022370
     5)   H                   1.10381495
     6)   H                   1.10608542
 Mulliken charges used for AMS results%charges...
 
 IRC point 16, iteration 2 (energy minimization)
 Energy:                     -1.02467575 Hartree
 RMS residual gradient:       0.00017434 Hartree/Angstrom
 Max residual gradient:       0.00033591 Hartree/Angstrom
 Gradient proj on path:       0.00040088 Hartree/Angstrom
 Max optimization step:       0.04822151 Angstrom
 Arc length at this point:    0.46019    Angstrom
 Total path length so far:    1.92286    Angstrom

 Lowest barrier height                      0.01458235 Hartree
 Highest barrier height                     0.01547621 Hartree

 ---------------------------------------------------------------
                          IRC summary
 System energy at the TS                   -1.01009340 Hartree
 Forward barrier height                     0.01458235 Hartree
 Backward barrier height                    0.01547621 Hartree
 ---------------------------------------------------------------
         Rel. energy   Rel. energy    Path coord   RMS gradient
           [Hartree]    [kcal/mol]    [Angstrom]    [Hartree/A]
     1    -0.0145823        -9.151      -1.92286      0.0001743
     2    -0.0142347        -8.932      -1.46267      0.0004649
     3    -0.0140568        -8.821      -1.36216      0.0006753
     4    -0.0138181        -8.671      -1.26228      0.0008953
     5    -0.0135022        -8.473      -1.16302      0.0011790
     6    -0.0130910        -8.215      -1.06409      0.0015817
     7    -0.0125617        -7.883      -0.96613      0.0021572
     8    -0.0118889        -7.460      -0.86874      0.0027122
     9    -0.0110469        -6.932      -0.77161      0.0034435
    10    -0.0100134        -6.284      -0.67529      0.0043162
    11    -0.0087735        -5.505      -0.57932      0.0051412
    12    -0.0073242        -4.596      -0.48378      0.0059988
    13    -0.0056873        -3.569      -0.38840      0.0066790
    14    -0.0039231        -2.462      -0.29330      0.0070724
    15    -0.0021672        -1.360      -0.19815      0.0065897
    16    -0.0006673        -0.419      -0.10336      0.0048928
    17     0.0000000         0.000       0.00000      0.0000724 TS
    18    -0.0011406        -0.716       0.10398      0.0080522
    19    -0.0044161        -2.771       0.20314      0.0107113
    20    -0.0074084        -4.649       0.30241      0.0056620
    21    -0.0093569        -5.872       0.40559      0.0041358
    22    -0.0108729        -6.823       0.51033      0.0033292
    23    -0.0120512        -7.562       0.61472      0.0026519
    24    -0.0129639        -8.135       0.71883      0.0021583
    25    -0.0136644        -8.575       0.82234      0.0016186
    26    -0.0141924        -8.906       0.92600      0.0012618
    27    -0.0145836        -9.151       1.02925      0.0009060
    28    -0.0148669        -9.329       1.13264      0.0006796
    29    -0.0150673        -9.455       1.23566      0.0004506
    30    -0.0154762        -9.711       2.52699      0.0001420
 ---------------------------------------------------------------


AMS application finished. Exiting.
NORMAL TERMINATION
     Total cpu time:    1127.05
  Total system time:     502.50
 Total elapsed time:   10044.98
 WARNING: total elapsed time is much higher than the (CPU+system) time. 
 Make sure the machine is not oversubscribed and has enough memory, SCM_TMPDIR p
 oints to a fast file system, and the network is fast enough.
